/*--------------------------------*- C++ -*----------------------------------*\
| =========                 |                                                 |
| \\      /  F ield         | OpenFOAM: The Open Source CFD Toolbox           |
|  \\    /   O peration     | Version:  v2006                                 |
|   \\  /    A nd           | Website:  www.openfoam.com                      |
|    \\/     M anipulation  |                                                 |
\*---------------------------------------------------------------------------*/
FoamFile
{
    version     2.0;
    format      ascii;
    class       volScalarField;
    location    "185";
    object      alphat;
}
// * * * * * * * * * * * * * * * * * * * * * * * * * * * * * * * * * * * * * //

dimensions      [1 -1 -1 0 0 0 0];


internalField   nonuniform List<scalar> 
93840
(
2.68152e-08
2.68062e-08
2.67856e-08
2.68003e-08
2.68413e-08
2.69022e-08
2.69766e-08
2.70612e-08
2.71569e-08
2.72743e-08
2.74181e-08
2.75996e-08
2.7829e-08
2.81071e-08
2.84344e-08
2.88045e-08
2.9135e-08
2.94118e-08
2.98029e-08
3.04197e-08
3.39685e-08
6.91199e-08
1.88721e-07
2.25451e-09
9.18507e-16
3.03414e-06
6.11437e-06
8.4319e-06
9.45404e-06
1.05735e-05
1.10495e-05
1.10097e-05
1.19729e-05
1.11769e-05
1.16674e-05
1.12046e-05
1.14934e-05
1.11539e-05
1.13296e-05
1.11122e-05
1.11839e-05
1.10548e-05
1.10471e-05
1.09699e-05
1.09231e-05
1.08652e-05
1.08265e-05
1.07495e-05
1.07361e-05
1.06498e-05
1.06258e-05
1.05597e-05
1.05133e-05
1.04637e-05
1.0482e-05
1.04108e-05
1.03999e-05
1.0312e-05
1.02889e-05
1.02431e-05
1.02345e-05
1.01782e-05
1.01792e-05
1.0162e-05
1.01566e-05
1.01477e-05
1.0164e-05
1.01751e-05
1.01834e-05
1.01984e-05
1.02221e-05
1.02434e-05
1.02739e-05
1.03147e-05
1.03534e-05
1.03972e-05
1.04494e-05
1.0505e-05
1.05706e-05
1.06385e-05
1.07055e-05
1.0777e-05
1.08567e-05
1.09479e-05
1.10464e-05
1.11443e-05
1.12476e-05
1.13525e-05
1.14601e-05
1.15788e-05
1.17129e-05
1.1857e-05
1.20022e-05
1.21525e-05
1.23144e-05
1.24828e-05
1.26554e-05
1.28241e-05
1.30092e-05
1.32033e-05
1.34132e-05
1.35956e-05
1.37815e-05
1.40613e-05
1.43698e-05
1.44706e-05
1.46076e-05
1.48003e-05
1.51035e-05
1.53255e-05
1.55581e-05
1.57674e-05
1.5982e-05
1.62127e-05
1.64298e-05
1.66207e-05
1.67898e-05
1.696e-05
1.71211e-05
1.73008e-05
1.74386e-05
1.76318e-05
1.77184e-05
1.78433e-05
1.7866e-05
1.79545e-05
1.80174e-05
1.80365e-05
1.813e-05
1.81403e-05
1.81374e-05
1.81924e-05
1.82064e-05
1.82635e-05
1.82705e-05
1.82898e-05
1.83051e-05
1.83526e-05
1.83747e-05
1.84157e-05
1.84373e-05
1.8451e-05
1.84511e-05
1.84716e-05
1.84804e-05
1.84902e-05
1.84997e-05
1.84991e-05
1.84896e-05
1.84776e-05
1.84688e-05
1.84494e-05
1.84197e-05
1.83835e-05
1.83386e-05
1.82859e-05
1.82199e-05
1.81398e-05
1.80505e-05
1.79583e-05
1.78657e-05
1.77499e-05
1.76013e-05
1.7428e-05
1.72236e-05
1.69824e-05
1.67016e-05
1.63634e-05
1.59054e-05
1.52021e-05
1.40889e-05
1.23771e-05
1.00133e-05
7.41887e-06
5.30799e-06
3.92465e-06
2.75586e-06
1.39426e-06
9.2166e-07
3.35991e-07
1.07148e-07
9.42806e-08
3.25653e-07
4.35212e-09
1.11179e-07
1.83695e-06
3.6682e-07
1.43965e-08
1.07624e-06
1.5477e-06
2.24817e-06
3.75685e-06
4.74098e-06
5.8959e-06
7.55194e-06
1.00504e-05
1.32595e-05
1.59551e-05
1.75135e-05
1.82709e-05
1.87899e-05
1.8956e-05
1.88354e-05
1.87371e-05
1.87694e-05
1.87404e-05
1.86463e-05
1.85652e-05
1.85388e-05
1.84431e-05
1.83188e-05
1.82472e-05
1.81595e-05
1.80567e-05
1.79888e-05
1.78929e-05
1.78043e-05
1.7718e-05
1.76116e-05
1.74769e-05
1.73819e-05
1.73385e-05
1.72254e-05
1.70779e-05
1.69815e-05
1.68773e-05
1.67667e-05
1.66798e-05
1.65913e-05
1.6466e-05
1.63255e-05
1.62376e-05
1.61382e-05
1.60393e-05
1.59928e-05
1.5955e-05
1.58696e-05
1.57552e-05
1.56362e-05
1.55454e-05
1.54275e-05
1.52921e-05
1.5192e-05
1.50958e-05
1.50004e-05
1.49069e-05
1.48449e-05
1.478e-05
1.46844e-05
1.45645e-05
1.4404e-05
1.42472e-05
1.39759e-05
1.3548e-05
1.27484e-05
1.15433e-05
1.12951e-05
1.15233e-05
1.17363e-05
1.18829e-05
1.19551e-05
1.19745e-05
1.19614e-05
1.19028e-05
1.18274e-05
1.17347e-05
1.16129e-05
1.14788e-05
1.12089e-05
1.09846e-05
1.08907e-05
1.08223e-05
1.06168e-05
1.03275e-05
1.01845e-05
1.00809e-05
9.93516e-06
9.73113e-06
9.48534e-06
9.26136e-06
9.05802e-06
8.83812e-06
8.6034e-06
8.36685e-06
8.12363e-06
7.86737e-06
7.61271e-06
7.3638e-06
7.11445e-06
6.86041e-06
6.6015e-06
6.338e-06
6.07296e-06
5.80913e-06
5.54335e-06
5.27433e-06
5.00233e-06
4.72535e-06
4.44199e-06
4.15673e-06
3.87913e-06
3.62357e-06
3.39739e-06
3.20618e-06
3.038e-06
2.89e-06
2.75849e-06
2.65134e-06
2.56299e-06
2.49591e-06
2.43244e-06
2.37636e-06
2.32413e-06
2.27936e-06
2.2385e-06
2.20392e-06
2.16807e-06
2.13692e-06
2.10401e-06
2.07787e-06
2.04877e-06
2.02608e-06
1.99883e-06
1.97992e-06
1.95484e-06
1.94073e-06
1.92893e-06
1.93238e-06
1.94702e-06
1.97945e-06
2.03123e-06
2.09414e-06
2.54809e-06
3.00467e-06
3.72601e-06
2.32533e-06
5.60094e-06
8.18009e-06
9.00646e-06
9.82461e-06
9.99116e-06
9.47187e-06
8.27734e-06
2.56176e-06
5.09678e-08
3.37355e-09
4.48016e-08
4.00961e-08
3.22906e-08
3.00838e-08
2.94562e-08
2.91129e-08
2.88e-08
2.84323e-08
2.81058e-08
2.78279e-08
2.75987e-08
2.74173e-08
2.7274e-08
2.71567e-08
2.7061e-08
2.69765e-08
2.69021e-08
2.68413e-08
2.68002e-08
2.67855e-08
2.68062e-08
2.68151e-08
2.68149e-08
2.68062e-08
2.67856e-08
2.68003e-08
2.68415e-08
2.69022e-08
2.69768e-08
2.70614e-08
2.71572e-08
2.72746e-08
2.7419e-08
2.76008e-08
2.78298e-08
2.81069e-08
2.84341e-08
2.88038e-08
2.9173e-08
2.94334e-08
2.98457e-08
3.01918e-08
2.70522e-08
1.67206e-08
2.47232e-08
2.46134e-07
1.35678e-07
1.46661e-12
5.68942e-07
4.16828e-06
4.6978e-06
6.33439e-06
7.02954e-06
7.45719e-06
7.73172e-06
7.4745e-06
7.7698e-06
7.44842e-06
7.80675e-06
7.42909e-06
7.83251e-06
7.46622e-06
7.81939e-06
7.56287e-06
7.72598e-06
7.65897e-06
7.67735e-06
7.67665e-06
7.78446e-06
7.5227e-06
7.93862e-06
7.5503e-06
7.80772e-06
7.7084e-06
7.79481e-06
7.6708e-06
7.96187e-06
7.58074e-06
7.94693e-06
7.64345e-06
7.92633e-06
7.73964e-06
7.97133e-06
7.79454e-06
7.997e-06
7.90522e-06
7.99666e-06
7.98746e-06
8.0298e-06
8.0391e-06
8.06612e-06
8.09505e-06
8.12369e-06
8.15507e-06
8.19226e-06
8.21936e-06
8.25584e-06
8.2893e-06
8.32563e-06
8.36275e-06
8.39265e-06
8.4279e-06
8.46718e-06
8.51332e-06
8.56231e-06
8.60698e-06
8.6511e-06
8.70008e-06
8.75246e-06
8.81112e-06
8.87958e-06
8.956e-06
9.03242e-06
9.10723e-06
9.18735e-06
9.26649e-06
9.35623e-06
9.43907e-06
9.52882e-06
9.62689e-06
9.72848e-06
9.83352e-06
9.92952e-06
1.00565e-05
1.02152e-05
1.03079e-05
1.02959e-05
1.03572e-05
1.05456e-05
1.07133e-05
1.08187e-05
1.08932e-05
1.10098e-05
1.11123e-05
1.12296e-05
1.13277e-05
1.13966e-05
1.14612e-05
1.14924e-05
1.1497e-05
1.14338e-05
1.13804e-05
1.13095e-05
1.12565e-05
1.11856e-05
1.10914e-05
1.09955e-05
1.09479e-05
1.07767e-05
1.08501e-05
1.06741e-05
1.05922e-05
1.04832e-05
1.03247e-05
1.03296e-05
1.02439e-05
1.02374e-05
1.02045e-05
1.02015e-05
1.01483e-05
1.01041e-05
1.00083e-05
9.92533e-06
9.82882e-06
9.77904e-06
9.64525e-06
9.57038e-06
9.45879e-06
9.35047e-06
9.24422e-06
9.14414e-06
9.07618e-06
8.98139e-06
8.90944e-06
8.84332e-06
8.76704e-06
8.69513e-06
8.62121e-06
8.53683e-06
8.43919e-06
8.33813e-06
8.2246e-06
8.06313e-06
7.8232e-06
7.47381e-06
7.03142e-06
6.44121e-06
5.7776e-06
5.04236e-06
4.13004e-06
3.08496e-06
2.07183e-06
1.12446e-06
3.55812e-07
4.88204e-08
6.4197e-09
3.18948e-09
3.53052e-09
4.08974e-09
8.24307e-09
1.4733e-08
2.44756e-08
4.32714e-08
4.42577e-08
2.72026e-08
8.70704e-08
3.21005e-08
5.67672e-09
1.9932e-08
3.08411e-08
2.68965e-08
1.95617e-08
8.70494e-09
1.39575e-08
1.82058e-08
2.60678e-08
5.81236e-08
1.94052e-07
6.96508e-07
1.55867e-06
2.47815e-06
3.54779e-06
4.65162e-06
5.63681e-06
6.45212e-06
7.13493e-06
7.77241e-06
8.30628e-06
8.66707e-06
8.88859e-06
9.07042e-06
9.16261e-06
9.20614e-06
9.25785e-06
9.28582e-06
9.3151e-06
9.36278e-06
9.41838e-06
9.47837e-06
9.51303e-06
9.53089e-06
9.55841e-06
9.57224e-06
9.62472e-06
9.66374e-06
9.67089e-06
9.69541e-06
9.71354e-06
9.72838e-06
9.74126e-06
9.70967e-06
9.69766e-06
9.67312e-06
9.66794e-06
9.62821e-06
9.60204e-06
9.62993e-06
9.65687e-06
9.62388e-06
9.59949e-06
9.57329e-06
9.54852e-06
9.48208e-06
9.43056e-06
9.35869e-06
9.31871e-06
9.28381e-06
9.34461e-06
9.30371e-06
9.26845e-06
9.31526e-06
9.24573e-06
9.20831e-06
9.11246e-06
8.98449e-06
8.82122e-06
8.83968e-06
9.23349e-06
1.00773e-05
1.06503e-05
1.09276e-05
1.10175e-05
1.10286e-05
1.10075e-05
1.10013e-05
1.09752e-05
1.09092e-05
1.08226e-05
1.07064e-05
1.07136e-05
1.07111e-05
1.05873e-05
1.03667e-05
1.02534e-05
1.03121e-05
1.02998e-05
1.0156e-05
1.00299e-05
1.00019e-05
9.98322e-06
9.95341e-06
9.88212e-06
9.81426e-06
9.75636e-06
9.70606e-06
9.64853e-06
9.58353e-06
9.5247e-06
9.45937e-06
9.39176e-06
9.31907e-06
9.24807e-06
9.17829e-06
9.1103e-06
9.04045e-06
8.97133e-06
8.89897e-06
8.82973e-06
8.75723e-06
8.68586e-06
8.61694e-06
8.54804e-06
8.47634e-06
8.40869e-06
8.33235e-06
8.27347e-06
8.19398e-06
8.156e-06
8.06051e-06
8.03281e-06
7.92892e-06
7.89073e-06
7.80759e-06
7.74856e-06
7.67661e-06
7.6176e-06
7.5345e-06
7.47813e-06
7.38742e-06
7.34175e-06
7.24437e-06
7.20582e-06
7.11131e-06
7.07228e-06
6.97645e-06
6.94622e-06
6.86747e-06
6.85501e-06
6.8088e-06
6.81241e-06
6.7711e-06
6.68989e-06
6.55195e-06
6.33016e-06
5.97341e-06
5.39885e-06
5.12371e-06
5.33136e-06
5.57357e-06
7.0788e-06
7.95408e-06
9.66041e-06
1.0747e-05
1.15402e-05
1.29021e-05
9.37114e-06
3.08805e-06
3.50301e-08
1.05982e-08
2.9644e-08
3.19783e-08
3.03103e-08
2.95313e-08
2.91106e-08
2.87937e-08
2.84281e-08
2.81033e-08
2.78264e-08
2.75977e-08
2.74165e-08
2.72736e-08
2.71566e-08
2.70608e-08
2.69764e-08
2.6902e-08
2.68413e-08
2.68002e-08
2.67855e-08
2.68061e-08
2.68149e-08
2.68153e-08
2.68063e-08
2.67856e-08
2.68004e-08
2.68415e-08
2.69024e-08
2.6977e-08
2.70616e-08
2.71574e-08
2.7275e-08
2.74198e-08
2.76021e-08
2.78303e-08
2.81077e-08
2.84332e-08
2.87999e-08
2.91906e-08
2.9475e-08
2.99045e-08
3.13941e-08
3.67942e-08
4.46617e-08
2.73233e-08
5.70276e-09
2.46179e-08
1.13853e-08
8.74947e-11
2.57368e-11
2.00194e-07
5.40813e-08
1.40607e-06
1.22916e-06
1.97979e-06
1.45705e-06
2.04194e-06
1.62295e-06
1.90213e-06
1.85352e-06
1.81988e-06
1.98315e-06
1.81581e-06
2.08315e-06
1.78248e-06
2.22323e-06
1.70972e-06
2.31993e-06
1.81339e-06
2.21442e-06
2.05594e-06
2.12623e-06
2.14676e-06
2.14073e-06
2.26389e-06
2.09447e-06
2.45188e-06
2.00792e-06
2.50445e-06
2.10694e-06
2.51838e-06
2.26278e-06
2.59413e-06
2.34576e-06
2.6479e-06
2.49349e-06
2.6415e-06
2.60864e-06
2.67256e-06
2.67732e-06
2.71235e-06
2.74269e-06
2.77384e-06
2.80367e-06
2.83773e-06
2.86092e-06
2.89667e-06
2.9201e-06
2.95155e-06
2.97622e-06
2.99005e-06
3.02177e-06
3.05554e-06
3.09358e-06
3.12983e-06
3.15329e-06
3.1782e-06
3.21287e-06
3.24525e-06
3.29595e-06
3.35799e-06
3.41747e-06
3.46576e-06
3.50714e-06
3.56584e-06
3.61127e-06
3.67512e-06
3.71984e-06
3.78363e-06
3.84957e-06
3.92744e-06
4.00801e-06
4.09174e-06
4.19755e-06
4.29423e-06
4.25697e-06
4.17328e-06
4.25712e-06
4.53016e-06
4.61356e-06
4.70664e-06
4.69195e-06
4.80637e-06
4.85663e-06
4.96889e-06
5.04263e-06
5.06664e-06
5.10219e-06
5.10318e-06
5.13514e-06
5.08919e-06
5.02583e-06
4.83701e-06
4.72929e-06
4.59256e-06
4.56308e-06
4.37476e-06
4.46705e-06
4.11817e-06
4.1954e-06
4.0351e-06
4.0448e-06
4.10574e-06
3.86837e-06
3.93865e-06
3.81044e-06
3.88452e-06
3.81572e-06
3.83213e-06
3.75566e-06
3.7795e-06
3.7341e-06
3.69172e-06
3.64115e-06
3.63832e-06
3.61022e-06
3.57663e-06
3.51872e-06
3.45533e-06
3.40997e-06
3.35235e-06
3.296e-06
3.21071e-06
3.1308e-06
3.02965e-06
2.91382e-06
2.77107e-06
2.60773e-06
2.43317e-06
2.21787e-06
1.99305e-06
1.7365e-06
1.44094e-06
1.11429e-06
7.62665e-07
4.55364e-07
2.19901e-07
1.09616e-07
6.55884e-08
4.66133e-08
3.83592e-08
4.03769e-08
4.94789e-08
5.78595e-08
6.51704e-08
6.97314e-08
7.26115e-08
7.40351e-08
7.63373e-08
7.72309e-08
7.31707e-08
6.87823e-08
6.45312e-08
6.55439e-08
7.16291e-08
4.39198e-08
5.50423e-08
5.25793e-08
3.09746e-08
2.31489e-08
1.95996e-08
2.03619e-08
1.94916e-08
1.86079e-08
1.62847e-08
1.53501e-08
1.36177e-08
1.34134e-08
1.42375e-08
1.54361e-08
1.51665e-08
2.71892e-08
6.62006e-08
1.33393e-07
1.98009e-07
3.38267e-07
6.98509e-07
1.06721e-06
1.32456e-06
1.67176e-06
2.06868e-06
2.34804e-06
2.55675e-06
2.78234e-06
2.93704e-06
3.04076e-06
3.14285e-06
3.23522e-06
3.31388e-06
3.34848e-06
3.38132e-06
3.41329e-06
3.41948e-06
3.43757e-06
3.43901e-06
3.43158e-06
3.45103e-06
3.52131e-06
3.53331e-06
3.50129e-06
3.44521e-06
3.49071e-06
3.48992e-06
3.4593e-06
3.40009e-06
3.36955e-06
3.39564e-06
3.44831e-06
3.46313e-06
3.51086e-06
3.46807e-06
3.44445e-06
3.39475e-06
3.40242e-06
3.32039e-06
3.34061e-06
3.32049e-06
3.44348e-06
3.37614e-06
3.27793e-06
3.44035e-06
3.4326e-06
3.54777e-06
3.48549e-06
3.49401e-06
3.47879e-06
3.68297e-06
3.96839e-06
4.14647e-06
4.21268e-06
4.41268e-06
4.48512e-06
4.49166e-06
4.51115e-06
4.60478e-06
4.6878e-06
4.65345e-06
4.65833e-06
4.56556e-06
4.6503e-06
4.76996e-06
4.80801e-06
4.56405e-06
4.32105e-06
4.43296e-06
4.54085e-06
4.47821e-06
4.3123e-06
4.26429e-06
4.30932e-06
4.3569e-06
4.34698e-06
4.33079e-06
4.32441e-06
4.32093e-06
4.3086e-06
4.28965e-06
4.27079e-06
4.23517e-06
4.20155e-06
4.16565e-06
4.13562e-06
4.1114e-06
4.09141e-06
4.07127e-06
4.05282e-06
4.02698e-06
4.00465e-06
3.98105e-06
3.95831e-06
3.94043e-06
3.92522e-06
3.89821e-06
3.88102e-06
3.84223e-06
3.84766e-06
3.80026e-06
3.84222e-06
3.75839e-06
3.80571e-06
3.71826e-06
3.73487e-06
3.68644e-06
3.68601e-06
3.624e-06
3.65412e-06
3.55072e-06
3.5821e-06
3.50066e-06
3.5152e-06
3.48377e-06
3.46082e-06
3.46144e-06
3.41289e-06
3.42087e-06
3.35579e-06
3.36598e-06
3.29186e-06
3.28804e-06
3.17629e-06
3.10003e-06
2.94947e-06
2.65341e-06
2.44153e-06
1.76102e-06
1.39099e-06
7.40682e-07
9.95898e-07
8.06954e-07
2.3164e-06
2.87145e-06
5.58353e-06
6.87121e-06
9.043e-06
1.31896e-05
1.34694e-05
7.49473e-06
1.96211e-06
9.12626e-08
2.92474e-08
3.09712e-08
3.03458e-08
2.95935e-08
2.91228e-08
2.8785e-08
2.84225e-08
2.81018e-08
2.78246e-08
2.75966e-08
2.74158e-08
2.72733e-08
2.71563e-08
2.70606e-08
2.69762e-08
2.69018e-08
2.68412e-08
2.68001e-08
2.67854e-08
2.68062e-08
2.68148e-08
2.68148e-08
2.68063e-08
2.67856e-08
2.68004e-08
2.68416e-08
2.69025e-08
2.6977e-08
2.70617e-08
2.71578e-08
2.72754e-08
2.74203e-08
2.76032e-08
2.78306e-08
2.81083e-08
2.84289e-08
2.87948e-08
2.91997e-08
2.94926e-08
2.96938e-08
2.95552e-08
2.83744e-08
2.79038e-08
3.95023e-08
6.19142e-08
6.5201e-08
1.3417e-07
5.43276e-08
1.57868e-08
1.3586e-08
3.12316e-09
4.84241e-09
2.64284e-08
1.20668e-08
5.33843e-08
1.82316e-08
5.08278e-08
3.13282e-08
4.34088e-08
4.03385e-08
4.3851e-08
4.60404e-08
4.3004e-08
5.5165e-08
3.70749e-08
7.28014e-08
3.58179e-08
6.96e-08
5.06386e-08
6.1512e-08
6.21356e-08
5.90757e-08
7.64802e-08
5.95855e-08
7.84059e-08
7.83961e-08
6.43723e-08
8.8754e-08
6.81906e-08
9.05956e-08
8.39654e-08
9.80371e-08
9.3941e-08
1.09674e-07
1.06204e-07
1.15616e-07
1.17535e-07
1.24118e-07
1.24963e-07
1.2985e-07
1.34612e-07
1.38483e-07
1.42784e-07
1.47699e-07
1.50041e-07
1.54709e-07
1.58701e-07
1.62813e-07
1.66734e-07
1.6842e-07
1.71505e-07
1.76748e-07
1.83014e-07
1.89194e-07
1.9206e-07
1.9366e-07
1.97902e-07
2.0147e-07
2.08903e-07
2.20436e-07
2.3236e-07
2.41001e-07
2.44645e-07
2.53286e-07
2.59687e-07
2.69802e-07
2.75664e-07
2.83697e-07
2.94778e-07
3.09409e-07
3.23668e-07
3.37965e-07
3.60961e-07
3.89983e-07
3.74626e-07
3.23267e-07
3.29452e-07
4.18701e-07
4.56506e-07
4.7349e-07
4.49528e-07
4.74972e-07
4.71356e-07
5.01638e-07
5.20336e-07
5.15507e-07
5.1921e-07
5.15747e-07
5.23463e-07
5.09247e-07
5.04404e-07
4.248e-07
3.55893e-07
2.95772e-07
3.03081e-07
2.4799e-07
3.16651e-07
2.13461e-07
2.16728e-07
1.7649e-07
1.83775e-07
2.35248e-07
1.82435e-07
1.93887e-07
1.64377e-07
1.83836e-07
1.76528e-07
1.84686e-07
1.69171e-07
1.75269e-07
1.75863e-07
1.71641e-07
1.62401e-07
1.64356e-07
1.66885e-07
1.66977e-07
1.61223e-07
1.51681e-07
1.46289e-07
1.41669e-07
1.37043e-07
1.26775e-07
1.16532e-07
1.06717e-07
9.72755e-08
8.5633e-08
7.37218e-08
6.57922e-08
5.71079e-08
5.0033e-08
4.45203e-08
3.99064e-08
3.68566e-08
3.49217e-08
3.41062e-08
3.37936e-08
3.36086e-08
3.31421e-08
3.27044e-08
3.2637e-08
3.27767e-08
3.28539e-08
3.31239e-08
3.34538e-08
3.40808e-08
3.54155e-08
3.6781e-08
3.89969e-08
4.0577e-08
4.26516e-08
4.59269e-08
4.97183e-08
5.01339e-08
4.79617e-08
5.53824e-08
4.22827e-08
4.09758e-08
3.78986e-08
3.16436e-08
2.52121e-08
2.0967e-08
1.7469e-08
1.48386e-08
1.29378e-08
1.20711e-08
1.09806e-08
1.01846e-08
9.85079e-09
9.65066e-09
9.36956e-09
9.0297e-09
9.16154e-09
9.45763e-09
9.2802e-09
9.67989e-09
1.26591e-08
1.42701e-08
1.44706e-08
2.27734e-08
3.62488e-08
4.40242e-08
5.84006e-08
8.44027e-08
9.82144e-08
1.08046e-07
1.25314e-07
1.40895e-07
1.49228e-07
1.52562e-07
1.57068e-07
1.59721e-07
1.66714e-07
1.65596e-07
1.5376e-07
1.45046e-07
1.60829e-07
1.78433e-07
1.61777e-07
1.48373e-07
1.4836e-07
1.65862e-07
1.63854e-07
1.38557e-07
1.19285e-07
1.1708e-07
1.307e-07
1.45841e-07
1.52346e-07
1.54139e-07
1.38575e-07
1.39037e-07
1.3381e-07
1.3514e-07
1.13465e-07
1.2307e-07
1.23671e-07
1.45478e-07
1.23218e-07
1.08051e-07
1.48577e-07
1.57826e-07
1.89104e-07
1.68754e-07
1.83843e-07
1.87634e-07
2.72107e-07
3.5688e-07
2.80925e-07
2.23729e-07
2.63502e-07
2.70296e-07
2.69708e-07
2.89498e-07
3.37465e-07
3.63647e-07
3.49241e-07
3.65319e-07
3.4934e-07
3.96036e-07
4.77437e-07
4.83614e-07
3.77633e-07
3.01147e-07
3.74538e-07
4.25943e-07
3.88403e-07
3.2759e-07
3.27592e-07
3.62736e-07
3.91502e-07
4.00965e-07
4.08224e-07
4.1798e-07
4.24543e-07
4.31099e-07
4.3633e-07
4.37482e-07
4.31446e-07
4.28426e-07
4.27664e-07
4.3037e-07
4.34824e-07
4.40105e-07
4.43887e-07
4.47255e-07
4.46614e-07
4.46842e-07
4.47771e-07
4.4975e-07
4.53085e-07
4.57109e-07
4.55341e-07
4.5828e-07
4.55018e-07
4.68681e-07
4.60397e-07
4.82921e-07
4.57457e-07
4.77566e-07
4.50592e-07
4.65289e-07
4.43296e-07
4.6502e-07
4.26207e-07
4.51296e-07
4.30304e-07
3.97008e-07
4.56533e-07
3.60859e-07
4.57031e-07
3.76804e-07
4.24956e-07
4.05584e-07
3.84769e-07
4.25913e-07
3.33279e-07
4.32558e-07
2.66926e-07
4.14905e-07
1.64612e-07
3.33483e-07
5.76374e-08
1.46326e-07
6.15633e-09
2.99767e-08
1.85308e-09
2.0784e-08
4.37085e-09
5.55341e-08
1.66959e-07
8.76578e-07
3.11824e-06
2.9661e-06
9.01766e-06
1.34285e-05
1.01535e-05
4.08424e-06
7.15377e-07
5.69514e-08
3.22663e-08
3.04144e-08
2.96282e-08
2.91344e-08
2.87674e-08
2.84137e-08
2.81004e-08
2.78228e-08
2.75957e-08
2.74152e-08
2.72728e-08
2.71561e-08
2.70604e-08
2.69761e-08
2.69018e-08
2.68411e-08
2.68e-08
2.67853e-08
2.68062e-08
2.68147e-08
2.68149e-08
2.68064e-08
2.67856e-08
2.68005e-08
2.68417e-08
2.69027e-08
2.69771e-08
2.70619e-08
2.7158e-08
2.72758e-08
2.74209e-08
2.7604e-08
2.78306e-08
2.81084e-08
2.84247e-08
2.87824e-08
2.92014e-08
2.95137e-08
2.98162e-08
3.05935e-08
3.26532e-08
3.51513e-08
3.06499e-08
2.11407e-08
1.41426e-08
1.52422e-08
7.6333e-08
6.21505e-08
5.57998e-08
6.29537e-08
4.33308e-08
4.86444e-08
4.55572e-08
4.49837e-08
4.56841e-08
4.76384e-08
4.29934e-08
5.04017e-08
4.19647e-08
5.13861e-08
4.20312e-08
5.25076e-08
4.1004e-08
5.57729e-08
3.82097e-08
5.79775e-08
4.14122e-08
4.94056e-08
5.26906e-08
4.02342e-08
6.12499e-08
3.66676e-08
6.44793e-08
3.84482e-08
5.74663e-08
4.74259e-08
4.89367e-08
5.27096e-08
4.83923e-08
5.21002e-08
5.03677e-08
5.16256e-08
5.15466e-08
5.18753e-08
5.2084e-08
5.23501e-08
5.25617e-08
5.26945e-08
5.29558e-08
5.30313e-08
5.33042e-08
5.34199e-08
5.35564e-08
5.36539e-08
5.37434e-08
5.39178e-08
5.39699e-08
5.41099e-08
5.4183e-08
5.41463e-08
5.41937e-08
5.43113e-08
5.43794e-08
5.42622e-08
5.41487e-08
5.40866e-08
5.39826e-08
5.40762e-08
5.41521e-08
5.42459e-08
5.4253e-08
5.39326e-08
5.38088e-08
5.3505e-08
5.33138e-08
5.29207e-08
5.2467e-08
5.22365e-08
5.1939e-08
5.16044e-08
5.12229e-08
5.10788e-08
5.11314e-08
4.96318e-08
4.71053e-08
4.6546e-08
4.80012e-08
4.85776e-08
4.78335e-08
4.63122e-08
4.54602e-08
4.40901e-08
4.34278e-08
4.25648e-08
4.11622e-08
4.00438e-08
3.88486e-08
3.74103e-08
3.62203e-08
3.63623e-08
3.53958e-08
3.30192e-08
3.07624e-08
2.97502e-08
2.93569e-08
3.09731e-08
3.03883e-08
3.04782e-08
2.92114e-08
2.90883e-08
3.06133e-08
3.10285e-08
3.14953e-08
3.1165e-08
3.14443e-08
3.16943e-08
3.22499e-08
3.24935e-08
3.25288e-08
3.27488e-08
3.29626e-08
3.31965e-08
3.34659e-08
3.3748e-08
3.39589e-08
3.4069e-08
3.41057e-08
3.42169e-08
3.4505e-08
3.48548e-08
3.50866e-08
3.52079e-08
3.53781e-08
3.56084e-08
3.58148e-08
3.60244e-08
3.63521e-08
3.6727e-08
3.70809e-08
3.74439e-08
3.78011e-08
3.81522e-08
3.85396e-08
3.90435e-08
3.96302e-08
4.02646e-08
4.0902e-08
4.14908e-08
4.20901e-08
4.28412e-08
4.37981e-08
4.52278e-08
4.68741e-08
4.89633e-08
5.1032e-08
5.28768e-08
5.51199e-08
5.62163e-08
5.72358e-08
5.82978e-08
5.76284e-08
5.74789e-08
5.78817e-08
4.97468e-08
4.66532e-08
3.72973e-08
2.89581e-08
2.55661e-08
2.29866e-08
2.14261e-08
1.94572e-08
1.72531e-08
1.52934e-08
1.39206e-08
1.2299e-08
1.13111e-08
1.10678e-08
1.07778e-08
1.03761e-08
9.99886e-09
1.02746e-08
1.07598e-08
1.08141e-08
1.05534e-08
1.08488e-08
1.12746e-08
1.14704e-08
1.16849e-08
1.2166e-08
1.25823e-08
1.29763e-08
1.34075e-08
1.36291e-08
1.36629e-08
1.38782e-08
1.41042e-08
1.40789e-08
1.4267e-08
1.42945e-08
1.41613e-08
1.37878e-08
1.35648e-08
1.34992e-08
1.34097e-08
1.37993e-08
1.38977e-08
1.35243e-08
1.33955e-08
1.38566e-08
1.43034e-08
1.36845e-08
1.28199e-08
1.25669e-08
1.25423e-08
1.26306e-08
1.29933e-08
1.32568e-08
1.30129e-08
1.26306e-08
1.25825e-08
1.2863e-08
1.27442e-08
1.24915e-08
1.25346e-08
1.23174e-08
1.21156e-08
1.19068e-08
1.19197e-08
1.27583e-08
1.28097e-08
1.24488e-08
1.25508e-08
1.31153e-08
1.31382e-08
1.46717e-08
1.84729e-08
2.15602e-08
2.34858e-08
2.50321e-08
2.57532e-08
2.65789e-08
2.77008e-08
2.90415e-08
2.97878e-08
3.01059e-08
3.08086e-08
3.14262e-08
3.3086e-08
3.62691e-08
3.6866e-08
3.54598e-08
3.46938e-08
3.76193e-08
3.97363e-08
3.91264e-08
3.8289e-08
3.90607e-08
4.06722e-08
4.19221e-08
4.29234e-08
4.40131e-08
4.51644e-08
4.61597e-08
4.72188e-08
4.82911e-08
4.90762e-08
4.96148e-08
5.01997e-08
5.09557e-08
5.18727e-08
5.28168e-08
5.37062e-08
5.44371e-08
5.51605e-08
5.57199e-08
5.62547e-08
5.67477e-08
5.72648e-08
5.77794e-08
5.82725e-08
5.84865e-08
5.88834e-08
5.89958e-08
5.97608e-08
5.95527e-08
6.04006e-08
5.95074e-08
6.02149e-08
5.89952e-08
6.02008e-08
5.83302e-08
5.98149e-08
5.97354e-08
5.41323e-08
6.70323e-08
4.65469e-08
6.91998e-08
5.12837e-08
5.43871e-08
6.973e-08
3.93541e-08
8.62085e-08
3.18344e-08
9.43436e-08
2.87721e-08
9.27841e-08
2.89078e-08
8.30183e-08
3.16983e-08
6.34568e-08
3.97e-08
4.1095e-08
5.60731e-08
3.06395e-08
7.27175e-08
2.49875e-08
7.78416e-08
1.48181e-08
1.22736e-07
1.73132e-09
8.71128e-07
9.03804e-08
3.05063e-06
9.96373e-06
1.02567e-05
5.40784e-06
1.58461e-06
1.5083e-07
3.85609e-08
3.09308e-08
2.96738e-08
2.91492e-08
2.8751e-08
2.84047e-08
2.8098e-08
2.78208e-08
2.75951e-08
2.74147e-08
2.72724e-08
2.71558e-08
2.70603e-08
2.6976e-08
2.69017e-08
2.6841e-08
2.67999e-08
2.67852e-08
2.68062e-08
2.68146e-08
2.68149e-08
2.68064e-08
2.67857e-08
2.68006e-08
2.68418e-08
2.69027e-08
2.69772e-08
2.70621e-08
2.71583e-08
2.7276e-08
2.74213e-08
2.76046e-08
2.7831e-08
2.81095e-08
2.84245e-08
2.87729e-08
2.91918e-08
2.95154e-08
2.97827e-08
3.01381e-08
3.0265e-08
3.36013e-08
4.8772e-08
6.62376e-08
6.47622e-08
4.21682e-08
1.96798e-08
4.06515e-08
3.40598e-08
3.9589e-08
4.09391e-08
4.03043e-08
4.2518e-08
4.06765e-08
4.43362e-08
3.98678e-08
4.66462e-08
3.88741e-08
4.865e-08
3.81947e-08
5.01393e-08
3.76366e-08
5.19517e-08
3.6551e-08
5.43622e-08
3.59516e-08
5.40766e-08
3.90838e-08
4.87111e-08
4.55155e-08
4.33015e-08
5.11735e-08
3.94131e-08
5.5109e-08
3.93699e-08
5.22438e-08
4.43003e-08
4.7843e-08
4.75646e-08
4.70682e-08
4.80106e-08
4.76622e-08
4.81305e-08
4.80313e-08
4.82651e-08
4.83395e-08
4.84425e-08
4.84862e-08
4.86301e-08
4.86048e-08
4.87037e-08
4.8747e-08
4.8723e-08
4.87825e-08
4.87486e-08
4.8781e-08
4.87719e-08
4.8723e-08
4.87322e-08
4.86125e-08
4.85426e-08
4.84578e-08
4.83399e-08
4.81439e-08
4.7996e-08
4.78435e-08
4.76628e-08
4.75314e-08
4.73211e-08
4.70722e-08
4.68158e-08
4.64844e-08
4.61758e-08
4.57745e-08
4.53995e-08
4.49626e-08
4.44495e-08
4.39712e-08
4.34278e-08
4.28577e-08
4.22628e-08
4.16376e-08
4.09256e-08
3.99315e-08
3.91723e-08
3.8763e-08
3.83241e-08
3.74992e-08
3.66825e-08
3.59625e-08
3.51193e-08
3.43397e-08
3.35036e-08
3.25831e-08
3.16645e-08
3.08054e-08
2.98847e-08
2.87117e-08
2.78084e-08
2.72185e-08
2.70507e-08
2.64517e-08
2.61131e-08
2.53377e-08
2.52835e-08
2.5227e-08
2.5883e-08
2.6234e-08
2.62992e-08
2.62434e-08
2.64739e-08
2.7127e-08
2.75424e-08
2.78713e-08
2.80732e-08
2.84522e-08
2.85399e-08
2.90584e-08
2.93199e-08
2.94941e-08
2.96021e-08
2.98509e-08
3.01328e-08
3.0471e-08
3.07381e-08
3.09299e-08
3.10584e-08
3.12012e-08
3.14461e-08
3.17458e-08
3.20946e-08
3.24184e-08
3.27405e-08
3.30752e-08
3.3417e-08
3.37425e-08
3.4081e-08
3.44325e-08
3.47596e-08
3.50555e-08
3.52668e-08
3.53508e-08
3.5287e-08
3.51499e-08
3.49767e-08
3.48531e-08
3.48488e-08
3.50932e-08
3.56153e-08
3.64459e-08
3.74513e-08
3.85965e-08
3.98669e-08
4.09211e-08
4.2156e-08
4.34532e-08
4.49666e-08
4.67149e-08
4.86135e-08
5.04954e-08
5.29109e-08
5.3006e-08
5.05712e-08
5.14982e-08
4.90214e-08
4.70639e-08
4.04759e-08
3.34219e-08
2.70479e-08
2.27459e-08
1.94271e-08
1.68712e-08
1.49372e-08
1.34603e-08
1.1896e-08
1.11361e-08
1.07321e-08
1.01819e-08
9.52182e-09
9.37239e-09
9.56468e-09
9.51629e-09
9.27053e-09
9.25332e-09
9.66743e-09
9.93838e-09
1.00785e-08
1.0437e-08
1.0962e-08
1.12267e-08
1.12528e-08
1.15367e-08
1.16261e-08
1.15141e-08
1.16626e-08
1.16751e-08
1.17215e-08
1.18019e-08
1.16296e-08
1.13217e-08
1.12272e-08
1.13843e-08
1.12644e-08
1.10481e-08
1.12096e-08
1.12215e-08
1.10482e-08
1.12212e-08
1.15134e-08
1.13868e-08
1.12075e-08
1.11266e-08
1.09366e-08
1.06971e-08
1.07935e-08
1.09083e-08
1.07822e-08
1.04321e-08
1.03491e-08
1.0609e-08
1.07779e-08
1.05053e-08
1.03857e-08
1.01244e-08
9.92788e-09
9.96834e-09
1.02942e-08
1.01503e-08
1.00845e-08
9.91308e-09
9.68838e-09
1.01223e-08
1.01968e-08
9.9275e-09
1.00306e-08
1.17884e-08
1.65221e-08
1.9937e-08
2.10136e-08
2.15242e-08
2.20306e-08
2.25103e-08
2.29115e-08
2.32472e-08
2.35858e-08
2.39579e-08
2.44763e-08
2.50175e-08
2.58441e-08
2.67616e-08
2.73518e-08
2.77503e-08
2.85606e-08
2.95417e-08
3.01265e-08
3.04385e-08
3.08804e-08
3.14726e-08
3.19413e-08
3.24343e-08
3.31334e-08
3.38383e-08
3.44448e-08
3.50495e-08
3.56616e-08
3.62413e-08
3.67966e-08
3.73418e-08
3.79005e-08
3.84535e-08
3.89779e-08
3.94484e-08
3.98855e-08
4.03479e-08
4.08211e-08
4.12508e-08
4.15995e-08
4.193e-08
4.22399e-08
4.25389e-08
4.27991e-08
4.30274e-08
4.31516e-08
4.32976e-08
4.33244e-08
4.3386e-08
4.32778e-08
4.34009e-08
4.3087e-08
4.35238e-08
4.32434e-08
4.26963e-08
4.50469e-08
3.98089e-08
4.72359e-08
3.98117e-08
4.22662e-08
4.93728e-08
3.15481e-08
6.16948e-08
2.6542e-08
6.37604e-08
2.81274e-08
5.6884e-08
3.44242e-08
4.57092e-08
4.42455e-08
3.50276e-08
5.5827e-08
2.66797e-08
6.62389e-08
2.19445e-08
7.18388e-08
1.9743e-08
7.23883e-08
1.75609e-08
7.46242e-08
1.46732e-08
8.3724e-08
1.06484e-08
1.07508e-07
5.77211e-08
5.84867e-09
5.17252e-06
7.93003e-06
5.34052e-06
2.01257e-06
2.87344e-07
4.88414e-08
3.19364e-08
2.97445e-08
2.91651e-08
2.87411e-08
2.83989e-08
2.80941e-08
2.7819e-08
2.75946e-08
2.74144e-08
2.72722e-08
2.71555e-08
2.70601e-08
2.69758e-08
2.69016e-08
2.68409e-08
2.67999e-08
2.67852e-08
2.68061e-08
2.68145e-08
2.68149e-08
2.68065e-08
2.67857e-08
2.68007e-08
2.68419e-08
2.69027e-08
2.69774e-08
2.70623e-08
2.71585e-08
2.72763e-08
2.74218e-08
2.76052e-08
2.78312e-08
2.81106e-08
2.84256e-08
2.87698e-08
2.91629e-08
2.94879e-08
2.98279e-08
3.06859e-08
3.06571e-08
2.41256e-08
1.40562e-08
1.43927e-08
2.46647e-08
3.8829e-08
4.5757e-08
3.15987e-08
4.27015e-08
3.49354e-08
4.15426e-08
3.73205e-08
4.10771e-08
3.90131e-08
4.06836e-08
4.06397e-08
4.00493e-08
4.22353e-08
3.93431e-08
4.38321e-08
3.85675e-08
4.55746e-08
3.7583e-08
4.76693e-08
3.63569e-08
4.97448e-08
3.58655e-08
5.01303e-08
3.72945e-08
4.83866e-08
3.98399e-08
4.58616e-08
4.36291e-08
4.20908e-08
4.73448e-08
4.1084e-08
4.68808e-08
4.32115e-08
4.52907e-08
4.47706e-08
4.49919e-08
4.52541e-08
4.5317e-08
4.54356e-08
4.55159e-08
4.5594e-08
4.56766e-08
4.57113e-08
4.5829e-08
4.58223e-08
4.59281e-08
4.59611e-08
4.5944e-08
4.59865e-08
4.59141e-08
4.59078e-08
4.58791e-08
4.57714e-08
4.576e-08
4.56105e-08
4.54976e-08
4.53667e-08
4.52343e-08
4.50235e-08
4.4912e-08
4.47604e-08
4.4584e-08
4.44551e-08
4.42119e-08
4.39084e-08
4.36404e-08
4.33012e-08
4.29676e-08
4.2511e-08
4.21358e-08
4.18022e-08
4.13497e-08
4.08832e-08
4.03316e-08
3.97783e-08
3.92053e-08
3.85778e-08
3.78482e-08
3.693e-08
3.62847e-08
3.58211e-08
3.5307e-08
3.4407e-08
3.35392e-08
3.28027e-08
3.19403e-08
3.12543e-08
3.04973e-08
2.96789e-08
2.88742e-08
2.80927e-08
2.73237e-08
2.6433e-08
2.55265e-08
2.46042e-08
2.43406e-08
2.40662e-08
2.40503e-08
2.36973e-08
2.36884e-08
2.31952e-08
2.37114e-08
2.41731e-08
2.46119e-08
2.48329e-08
2.48936e-08
2.52651e-08
2.55995e-08
2.60794e-08
2.63023e-08
2.68405e-08
2.69107e-08
2.72238e-08
2.75992e-08
2.79283e-08
2.81261e-08
2.83241e-08
2.85068e-08
2.87515e-08
2.90784e-08
2.93482e-08
2.95885e-08
2.97903e-08
2.99691e-08
3.01707e-08
3.04231e-08
3.07305e-08
3.1079e-08
3.14628e-08
3.18748e-08
3.23109e-08
3.27777e-08
3.32794e-08
3.37765e-08
3.42029e-08
3.4548e-08
3.483e-08
3.50942e-08
3.5449e-08
3.59791e-08
3.67446e-08
3.775e-08
3.90352e-08
4.02753e-08
4.13563e-08
4.23083e-08
4.32432e-08
4.4408e-08
4.5707e-08
4.71379e-08
4.8911e-08
5.07913e-08
5.22475e-08
5.32313e-08
5.37001e-08
5.38951e-08
5.34353e-08
5.48335e-08
4.88455e-08
4.22721e-08
3.60438e-08
3.17466e-08
2.86621e-08
2.57103e-08
2.30769e-08
2.03376e-08
1.80081e-08
1.59945e-08
1.42382e-08
1.27399e-08
1.21096e-08
1.15993e-08
1.08733e-08
1.04402e-08
1.05407e-08
1.05627e-08
1.04436e-08
1.01202e-08
1.02675e-08
1.04213e-08
1.03333e-08
1.02283e-08
1.05756e-08
1.07961e-08
1.07951e-08
1.08999e-08
1.10672e-08
1.09531e-08
1.09726e-08
1.10208e-08
1.09203e-08
1.09601e-08
1.09038e-08
1.07013e-08
1.06614e-08
1.08033e-08
1.06735e-08
1.03744e-08
1.03872e-08
1.04727e-08
1.03599e-08
1.04028e-08
1.07006e-08
1.06657e-08
1.04095e-08
1.05787e-08
1.05911e-08
1.04442e-08
1.02792e-08
1.0156e-08
9.95789e-09
9.66812e-09
9.48996e-09
9.77888e-09
9.90335e-09
9.73646e-09
9.40248e-09
9.3224e-09