/*--------------------------------*- C++ -*----------------------------------*\
| =========                 |                                                 |
| \\      /  F ield         | OpenFOAM: The Open Source CFD Toolbox           |
|  \\    /   O peration     | Version:  v2006                                 |
|   \\  /    A nd           | Website:  www.openfoam.com                      |
|    \\/     M anipulation  |                                                 |
\*---------------------------------------------------------------------------*/
FoamFile
{
    version     2.0;
    format      ascii;
    class       volScalarField;
    location    "185";
    object      nut;
}
// * * * * * * * * * * * * * * * * * * * * * * * * * * * * * * * * * * * * * //

dimensions      [0 2 -1 0 0 0 0];


internalField   nonuniform List<scalar> 
93840
(
2.71856e-08
2.71793e-08
2.71656e-08
2.71752e-08
2.72025e-08
2.72429e-08
2.72923e-08
2.73484e-08
2.74118e-08
2.74895e-08
2.75846e-08
2.77044e-08
2.78557e-08
2.80386e-08
2.82527e-08
2.84939e-08
2.87148e-08
2.89194e-08
2.9262e-08
2.98332e-08
3.33088e-08
6.79476e-08
1.86186e-07
2.23336e-09
9.15131e-16
3.04079e-06
6.15306e-06
8.51768e-06
9.57414e-06
1.07222e-05
1.11543e-05
1.0882e-05
1.18379e-05
1.09361e-05
1.14412e-05
1.09681e-05
1.12445e-05
1.08987e-05
1.10555e-05
1.08288e-05
1.08875e-05
1.07518e-05
1.07341e-05
1.06508e-05
1.05945e-05
1.0526e-05
1.04773e-05
1.03948e-05
1.03711e-05
1.02757e-05
1.02449e-05
1.01746e-05
1.01156e-05
1.0057e-05
1.00779e-05
1.00101e-05
9.99588e-06
9.90229e-06
9.8681e-06
9.8198e-06
9.8077e-06
9.74671e-06
9.74718e-06
9.73384e-06
9.72767e-06
9.71765e-06
9.73396e-06
9.74754e-06
9.75356e-06
9.77189e-06
9.79891e-06
9.82327e-06
9.85991e-06
9.90638e-06
9.95036e-06
1.00011e-05
1.00597e-05
1.01226e-05
1.01973e-05
1.02735e-05
1.0349e-05
1.04306e-05
1.05229e-05
1.06299e-05
1.07431e-05
1.08559e-05
1.0976e-05
1.10983e-05
1.12242e-05
1.13639e-05
1.1524e-05
1.16979e-05
1.18768e-05
1.20635e-05
1.22614e-05
1.24695e-05
1.26872e-05
1.29048e-05
1.31412e-05
1.33909e-05
1.36594e-05
1.39011e-05
1.41618e-05
1.45621e-05
1.49769e-05
1.51137e-05
1.5306e-05
1.56105e-05
1.60195e-05
1.63558e-05
1.67054e-05
1.70393e-05
1.73799e-05
1.77641e-05
1.81289e-05
1.84805e-05
1.88103e-05
1.91828e-05
1.94962e-05
1.98032e-05
2.00261e-05
2.03451e-05
2.04637e-05
2.06955e-05
2.06065e-05
2.06908e-05
2.06581e-05
2.05157e-05
2.05907e-05
2.04477e-05
2.03643e-05
2.0255e-05
2.01504e-05
2.00885e-05
1.99891e-05
1.9861e-05
1.97449e-05
1.96631e-05
1.95719e-05
1.95188e-05
1.94486e-05
1.93599e-05
1.92497e-05
1.91795e-05
1.9103e-05
1.90338e-05
1.89657e-05
1.8883e-05
1.87839e-05
1.86746e-05
1.85768e-05
1.84726e-05
1.83542e-05
1.82267e-05
1.80913e-05
1.79476e-05
1.77899e-05
1.76153e-05
1.74256e-05
1.7237e-05
1.70598e-05
1.68603e-05
1.66239e-05
1.63603e-05
1.60629e-05
1.57268e-05
1.53541e-05
1.49362e-05
1.44154e-05
1.36683e-05
1.25525e-05
1.09196e-05
8.74932e-06
6.41837e-06
4.5383e-06
3.31189e-06
2.29141e-06
1.14072e-06
7.43104e-07
2.68064e-07
8.43644e-08
7.37704e-08
2.57665e-07
3.51224e-09
9.65866e-08
1.7071e-06
3.84094e-07
1.64218e-08
1.29514e-06
1.86744e-06
2.86954e-06
5.08894e-06
6.66998e-06
8.50538e-06
1.12878e-05
1.51674e-05
2.01185e-05
2.44328e-05
2.69992e-05
2.82374e-05
2.87295e-05
2.89136e-05
2.89237e-05
2.87625e-05
2.86341e-05
2.85448e-05
2.83886e-05
2.81901e-05
2.80275e-05
2.78752e-05
2.77356e-05
2.76038e-05
2.74952e-05
2.74107e-05
2.7317e-05
2.71818e-05
2.70364e-05
2.69245e-05
2.68273e-05
2.6734e-05
2.6751e-05
2.67661e-05
2.66769e-05
2.6567e-05
2.64444e-05
2.6301e-05
2.61721e-05
2.60417e-05
2.59001e-05
2.57465e-05
2.56312e-05
2.57036e-05
2.57022e-05
2.57237e-05
2.57135e-05
2.56319e-05
2.55206e-05
2.54276e-05
2.53171e-05
2.52576e-05
2.51749e-05
2.51486e-05
2.50766e-05
2.50819e-05
2.50111e-05
2.49751e-05
2.48331e-05
2.49204e-05
2.46264e-05
2.44531e-05
2.45012e-05
2.41459e-05
2.37898e-05
2.31927e-05
2.18421e-05
1.89114e-05
1.63721e-05
1.54184e-05
1.51933e-05
1.51456e-05
1.51115e-05
1.50387e-05
1.49408e-05
1.47933e-05
1.4615e-05
1.43971e-05
1.41863e-05
1.39442e-05
1.3509e-05
1.31106e-05
1.29263e-05
1.28044e-05
1.24897e-05
1.20472e-05
1.18034e-05
1.16401e-05
1.14216e-05
1.11235e-05
1.0794e-05
1.04956e-05
1.02016e-05
9.90107e-06
9.59297e-06
9.28632e-06
8.97603e-06
8.65887e-06
8.35133e-06
8.05275e-06
7.75465e-06
7.45365e-06
7.15278e-06
6.8514e-06
6.54883e-06
6.2466e-06
5.944e-06
5.6419e-06
5.34099e-06
5.03806e-06
4.72925e-06
4.41885e-06
4.11793e-06
3.84214e-06
3.59922e-06
3.39472e-06
3.21572e-06
3.05921e-06
2.92051e-06
2.80674e-06
2.71173e-06
2.6385e-06
2.56944e-06
2.50923e-06
2.45374e-06
2.40608e-06
2.36224e-06
2.3244e-06
2.28529e-06
2.2515e-06
2.216e-06
2.18777e-06
2.1563e-06
2.13122e-06
2.10117e-06
2.08022e-06
2.05339e-06
2.0386e-06
2.02672e-06
2.0307e-06
2.04619e-06
2.08057e-06
2.1344e-06
2.19826e-06
2.67111e-06
3.14944e-06
3.89804e-06
2.47297e-06
5.81009e-06
8.38726e-06
9.20347e-06
1.00172e-05
1.01537e-05
9.57066e-06
8.31487e-06
2.56001e-06
5.0589e-08
3.33083e-09
4.41063e-08
3.93547e-08
3.16606e-08
2.95363e-08
2.89615e-08
2.87014e-08
2.84907e-08
2.82513e-08
2.80376e-08
2.7855e-08
2.77039e-08
2.75841e-08
2.74894e-08
2.74117e-08
2.73483e-08
2.72923e-08
2.72429e-08
2.72025e-08
2.71752e-08
2.71656e-08
2.71793e-08
2.71855e-08
2.71852e-08
2.71794e-08
2.71656e-08
2.71752e-08
2.72026e-08
2.72429e-08
2.72924e-08
2.73485e-08
2.7412e-08
2.74898e-08
2.75852e-08
2.77052e-08
2.78561e-08
2.80381e-08
2.82523e-08
2.84929e-08
2.87379e-08
2.89291e-08
2.92985e-08
2.96329e-08
2.65391e-08
1.64348e-08
2.43958e-08
2.43612e-07
1.34668e-07
1.46364e-12
5.6984e-07
4.18401e-06
4.72117e-06
6.36474e-06
7.03618e-06
7.38713e-06
7.62551e-06
7.33273e-06
7.61896e-06
7.29546e-06
7.63815e-06
7.26029e-06
7.64536e-06
7.27899e-06
7.61511e-06
7.35815e-06
7.50915e-06
7.43712e-06
7.44715e-06
7.43874e-06
7.53544e-06
7.27603e-06
7.67173e-06
7.28941e-06
7.53221e-06
7.43094e-06
7.50576e-06
7.37833e-06
7.65613e-06
7.28827e-06
7.63667e-06
7.33999e-06
7.60503e-06
7.42294e-06
7.64308e-06
7.46862e-06
7.66001e-06
7.57196e-06
7.65835e-06
7.64927e-06
7.69192e-06
7.70294e-06
7.73051e-06
7.76062e-06
7.79081e-06
7.82345e-06
7.86353e-06
7.89426e-06
7.93378e-06
7.97173e-06
8.0127e-06
8.05548e-06
8.0935e-06
8.13655e-06
8.18387e-06
8.23878e-06
8.298e-06
8.35567e-06
8.41335e-06
8.47574e-06
8.54242e-06
8.61525e-06
8.69851e-06
8.79209e-06
8.88969e-06
8.98693e-06
9.09103e-06
9.19669e-06
9.31563e-06
9.43033e-06
9.55159e-06
9.6832e-06
9.82162e-06
9.96688e-06
1.0105e-05
1.02757e-05
1.04905e-05
1.06689e-05
1.07252e-05
1.08143e-05
1.10439e-05
1.1285e-05
1.146e-05
1.16134e-05
1.18115e-05
1.19938e-05
1.21943e-05
1.23916e-05
1.2553e-05
1.27147e-05
1.28334e-05
1.29251e-05
1.2922e-05
1.2945e-05
1.29066e-05
1.28977e-05
1.28153e-05
1.27484e-05
1.25831e-05
1.25343e-05
1.22747e-05
1.22591e-05
1.20295e-05
1.18471e-05
1.16854e-05
1.14259e-05
1.13667e-05
1.12027e-05
1.11323e-05
1.1015e-05
1.09541e-05
1.08289e-05
1.07256e-05
1.05778e-05
1.04447e-05
1.02902e-05
1.01823e-05
9.99662e-06
9.87481e-06
9.71781e-06
9.56678e-06
9.41786e-06
9.27105e-06
9.15754e-06
9.01772e-06
8.90264e-06
8.79505e-06
8.67624e-06
8.56217e-06
8.446e-06
8.31921e-06
8.17903e-06
8.035e-06
7.88056e-06
7.68489e-06
7.41619e-06
7.04433e-06
6.58685e-06
5.99462e-06
5.33974e-06
4.62644e-06
3.76162e-06
2.78886e-06
1.85794e-06
9.99372e-07
3.13179e-07
4.25471e-08
5.53736e-09
2.71966e-09
2.97343e-09
3.40334e-09
6.76513e-09
1.19287e-08
1.95477e-08
3.41945e-08
3.48441e-08
2.17821e-08
7.12386e-08
2.77079e-08
5.17822e-09
1.9807e-08
3.26918e-08
3.0295e-08
2.27713e-08
1.06525e-08
1.79758e-08
2.45294e-08
3.62229e-08
8.32877e-08
2.82395e-07
1.02781e-06
2.33164e-06
3.70742e-06
5.29489e-06
6.96803e-06
8.50762e-06
9.72184e-06
1.06571e-05
1.16098e-05
1.24505e-05
1.29493e-05
1.32036e-05
1.34532e-05
1.36139e-05
1.36679e-05
1.37288e-05
1.38038e-05
1.38665e-05
1.39323e-05
1.4031e-05
1.4116e-05
1.41933e-05
1.42745e-05
1.43446e-05
1.44148e-05
1.45725e-05
1.47063e-05
1.47648e-05
1.48121e-05
1.4871e-05
1.49037e-05
1.48971e-05
1.48694e-05
1.48963e-05
1.48917e-05
1.49796e-05
1.50164e-05
1.5065e-05
1.51425e-05
1.52156e-05
1.52212e-05
1.5246e-05
1.52053e-05
1.52004e-05
1.51754e-05
1.52234e-05
1.5181e-05
1.52247e-05
1.51882e-05
1.53158e-05
1.52344e-05
1.53274e-05
1.53739e-05
1.52611e-05
1.53339e-05
1.51291e-05
1.50203e-05
1.48586e-05
1.48757e-05
1.48425e-05
1.45032e-05
1.42137e-05
1.41426e-05
1.40447e-05
1.39362e-05
1.38103e-05
1.37191e-05
1.36078e-05
1.34599e-05
1.32867e-05
1.3068e-05
1.29924e-05
1.29006e-05
1.26408e-05
1.23012e-05
1.21148e-05
1.21107e-05
1.19971e-05
1.17547e-05
1.15667e-05
1.14867e-05
1.14002e-05
1.13023e-05
1.11755e-05
1.10562e-05
1.09423e-05
1.08355e-05
1.07237e-05
1.06057e-05
1.04971e-05
1.03855e-05
1.02741e-05
1.01607e-05
1.00527e-05
9.94818e-06
9.84716e-06
9.74613e-06
9.64853e-06
9.54956e-06
9.45411e-06
9.3559e-06
9.26164e-06
9.17367e-06
9.08908e-06
9.00465e-06
8.92673e-06
8.84045e-06
8.77319e-06
8.68491e-06
8.64122e-06
8.53599e-06
8.50233e-06
8.38791e-06
8.34369e-06
8.25245e-06
8.18616e-06
8.10573e-06
8.03919e-06
7.94806e-06
7.88575e-06
7.78761e-06
7.73644e-06
7.6308e-06
7.5882e-06
7.48711e-06
7.44421e-06
7.34084e-06
7.30618e-06
7.22042e-06
7.20412e-06
7.15402e-06
7.15536e-06
7.10845e-06
7.02085e-06
6.87457e-06
6.64175e-06
6.27063e-06
5.67359e-06
5.38064e-06
5.58663e-06
5.7958e-06
7.32898e-06
8.20077e-06
9.92814e-06
1.09964e-05
1.17371e-05
1.30266e-05
9.39458e-06
3.07616e-06
3.46804e-08
1.0455e-08
2.91605e-08
3.13748e-08
2.97585e-08
2.90313e-08
2.87034e-08
2.84869e-08
2.82483e-08
2.80357e-08
2.78539e-08
2.77032e-08
2.75836e-08
2.74891e-08
2.74116e-08
2.73482e-08
2.72922e-08
2.72428e-08
2.72025e-08
2.71752e-08
2.71655e-08
2.71793e-08
2.71853e-08
2.71857e-08
2.71794e-08
2.71656e-08
2.71753e-08
2.72026e-08
2.72431e-08
2.72925e-08
2.73487e-08
2.74122e-08
2.74901e-08
2.75857e-08
2.77061e-08
2.78564e-08
2.80387e-08
2.82521e-08
2.84899e-08
2.87467e-08
2.89468e-08
2.93353e-08
3.08201e-08
3.61259e-08
4.39152e-08
2.69591e-08
5.64218e-09
2.43878e-08
1.13124e-08
8.72172e-11
2.56971e-11
2.00073e-07
5.39728e-08
1.39762e-06
1.21496e-06
1.95054e-06
1.43078e-06
2.00196e-06
1.58947e-06
1.86089e-06
1.81117e-06
1.77619e-06
1.93338e-06
1.76841e-06
2.0268e-06
1.73248e-06
2.15874e-06
1.65833e-06
2.24792e-06
1.75537e-06
2.14185e-06
1.98686e-06
2.05302e-06
2.07144e-06
2.06404e-06
2.18052e-06
2.0152e-06
2.35803e-06
1.93037e-06
2.40638e-06
2.02311e-06
2.41648e-06
2.17055e-06
2.48796e-06
2.24821e-06
2.53667e-06
2.3884e-06
2.52976e-06
2.49836e-06
2.56037e-06
2.56574e-06
2.59993e-06
2.62976e-06
2.66043e-06
2.68984e-06
2.72386e-06
2.74753e-06
2.78335e-06
2.80775e-06
2.83997e-06
2.86623e-06
2.8829e-06
2.91687e-06
2.95306e-06
2.99368e-06
3.03305e-06
3.0608e-06
3.09021e-06
3.12937e-06
3.16669e-06
3.22188e-06
3.2887e-06
3.35432e-06
3.41101e-06
3.46126e-06
3.52839e-06
3.58314e-06
3.65815e-06
3.71472e-06
3.78934e-06
3.86798e-06
3.96055e-06
4.05753e-06
4.15881e-06
4.28326e-06
4.40349e-06
4.39952e-06
4.34181e-06
4.44049e-06
4.73631e-06
4.85072e-06
4.97777e-06
4.99519e-06
5.14729e-06
5.23042e-06
5.38293e-06
5.50197e-06
5.56383e-06
5.63686e-06
5.66786e-06
5.73226e-06
5.70682e-06
5.67412e-06
5.49005e-06
5.39902e-06
5.23658e-06
5.20897e-06
4.96599e-06
5.0743e-06
4.66721e-06
4.72541e-06
4.52721e-06
4.49642e-06
4.53945e-06
4.25375e-06
4.31328e-06
4.148e-06
4.20696e-06
4.09959e-06
4.0945e-06
3.99625e-06
3.99921e-06
3.93239e-06
3.87226e-06
3.80264e-06
3.78091e-06
3.73436e-06
3.68137e-06
3.60512e-06
3.52507e-06
3.46418e-06
3.39055e-06
3.31919e-06
3.21948e-06
3.12508e-06
3.00933e-06
2.87954e-06
2.72427e-06
2.55013e-06
2.36664e-06
2.14522e-06
1.91667e-06
1.66069e-06
1.371e-06
1.05457e-06
7.1764e-07
4.25891e-07
2.0434e-07
1.01149e-07
6.00803e-08
4.23845e-08
3.46137e-08
3.61322e-08
4.38784e-08
5.08211e-08
5.66846e-08
6.00255e-08
6.17886e-08
6.22506e-08
6.33137e-08
6.31586e-08
5.90809e-08
5.49442e-08
5.10261e-08
5.16726e-08
5.70516e-08
3.56296e-08
4.67804e-08
4.70139e-08
2.98352e-08
2.38214e-08
2.14155e-08
2.31274e-08
2.32359e-08
2.33092e-08
2.14094e-08
2.07956e-08
1.90079e-08
1.91734e-08
2.07013e-08
2.25752e-08
2.21287e-08
3.9969e-08
9.8664e-08
1.98884e-07
2.91946e-07
4.96109e-07
1.03408e-06
1.58142e-06
1.94418e-06
2.44249e-06
3.03582e-06
3.44085e-06
3.72795e-06
4.06634e-06
4.30261e-06
4.44672e-06
4.60614e-06
4.75285e-06
4.87048e-06
4.93723e-06
4.98539e-06
5.01791e-06
5.05682e-06
5.14247e-06
5.16511e-06
5.1472e-06
5.19307e-06
5.30675e-06
5.30527e-06
5.26001e-06
5.2071e-06
5.27445e-06
5.26751e-06
5.26427e-06
5.20261e-06
5.18172e-06
5.25286e-06
5.37155e-06
5.41228e-06
5.47375e-06
5.39213e-06
5.39624e-06
5.36465e-06
5.41221e-06
5.29925e-06
5.35184e-06
5.30628e-06
5.52355e-06
5.44165e-06
5.35691e-06
5.59013e-06
5.54655e-06
5.78257e-06
5.70247e-06
5.77532e-06
5.76032e-06
6.06991e-06
6.26518e-06
5.88497e-06
5.58757e-06
5.6936e-06
5.71155e-06
5.67269e-06
5.65528e-06
5.73515e-06
5.80071e-06
5.72928e-06
5.71404e-06
5.56207e-06
5.63429e-06
5.74436e-06
5.74246e-06
5.41519e-06
5.102e-06
5.202e-06
5.2852e-06
5.17883e-06
4.96956e-06
4.89533e-06
4.91969e-06
4.94215e-06
4.90878e-06
4.87765e-06
4.85187e-06
4.8257e-06
4.79123e-06
4.75036e-06
4.70968e-06
4.65154e-06
4.59698e-06
4.54219e-06
4.49614e-06
4.45682e-06
4.42174e-06
4.38828e-06
4.35982e-06
4.32383e-06
4.2907e-06
4.25575e-06
4.22257e-06
4.19675e-06
4.17603e-06
4.14425e-06
4.12394e-06
4.08078e-06
4.08444e-06
4.03185e-06
4.07356e-06
3.98121e-06
4.02814e-06
3.9334e-06
3.94979e-06
3.89762e-06
3.89542e-06
3.82699e-06
3.85552e-06
3.74433e-06
3.7768e-06
3.69067e-06
3.70483e-06
3.67007e-06
3.64463e-06
3.64438e-06
3.59285e-06
3.60103e-06
3.53206e-06
3.54159e-06
3.46119e-06
3.45453e-06
3.33446e-06
3.25198e-06
3.09264e-06
2.78173e-06
2.56038e-06
1.84786e-06
1.4595e-06
7.76151e-07
1.04151e-06
8.40016e-07
2.40277e-06
2.96854e-06
5.7572e-06
7.06424e-06
9.25179e-06
1.34022e-05
1.35756e-05
7.49296e-06
1.9476e-06
9.00981e-08
2.88087e-08
3.04212e-08
2.97966e-08
2.90891e-08
2.87161e-08
2.84823e-08
2.82447e-08
2.80349e-08
2.78528e-08
2.77025e-08
2.75831e-08
2.74889e-08
2.74114e-08
2.7348e-08
2.7292e-08
2.72427e-08
2.72024e-08
2.71751e-08
2.71654e-08
2.71793e-08
2.71853e-08
2.71851e-08
2.71794e-08
2.71656e-08
2.71753e-08
2.72027e-08
2.72431e-08
2.72926e-08
2.73487e-08
2.74124e-08
2.74903e-08
2.75861e-08
2.77068e-08
2.78567e-08
2.80392e-08
2.82494e-08
2.84869e-08
2.87522e-08
2.89472e-08
2.91007e-08
2.89843e-08
2.78462e-08
2.74244e-08
3.89088e-08
6.1204e-08
6.46062e-08
1.33147e-07
5.40344e-08
1.57169e-08
1.35276e-08
3.1035e-09
4.79904e-09
2.60995e-08
1.18833e-08
5.24437e-08
1.78795e-08
4.97816e-08
3.06472e-08
4.24138e-08
3.93692e-08
4.27511e-08
4.48398e-08
4.18427e-08
5.362e-08
3.60005e-08
7.06156e-08
3.47066e-08
6.73715e-08
4.89751e-08
5.94398e-08
5.99911e-08
5.69967e-08
7.37354e-08
5.7397e-08
7.54542e-08
7.54031e-08
6.18883e-08
8.52785e-08
6.54765e-08
8.69333e-08
8.05417e-08
9.4018e-08
9.00401e-08
1.0508e-07
1.01744e-07
1.10749e-07
1.12584e-07
1.18913e-07
1.19748e-07
1.24453e-07
1.29049e-07
1.328e-07
1.36975e-07
1.41767e-07
1.44095e-07
1.48663e-07
1.52604e-07
1.5667e-07
1.60584e-07
1.62391e-07
1.65553e-07
1.70816e-07
1.77098e-07
1.8334e-07
1.86418e-07
1.88256e-07
1.92692e-07
1.96511e-07
2.0412e-07
2.15791e-07
2.27951e-07
2.3704e-07
2.41271e-07
2.50457e-07
2.57486e-07
2.68294e-07
2.74963e-07
2.83849e-07
2.95935e-07
3.11752e-07
3.27369e-07
3.43176e-07
3.67976e-07
3.9946e-07
3.86476e-07
3.35512e-07
3.42878e-07
4.36996e-07
4.79162e-07
4.99709e-07
4.77295e-07
5.0727e-07
5.06285e-07
5.41864e-07
5.65801e-07
5.63964e-07
5.71271e-07
5.70326e-07
5.82377e-07
5.68937e-07
5.65719e-07
4.78633e-07
4.04246e-07
3.3665e-07
3.45338e-07
2.80436e-07
3.57251e-07
2.40291e-07
2.43162e-07
1.97755e-07
2.03933e-07
2.59086e-07
1.99472e-07
2.11128e-07
1.78102e-07
1.98411e-07
1.89258e-07
1.96581e-07
1.79347e-07
1.85114e-07
1.84798e-07
1.79476e-07
1.69008e-07
1.70236e-07
1.72156e-07
1.71535e-07
1.64892e-07
1.54422e-07
1.48242e-07
1.42872e-07
1.37587e-07
1.26743e-07
1.1602e-07
1.05781e-07
9.59757e-08
8.40767e-08
7.20112e-08
6.39207e-08
5.51672e-08
4.80452e-08
4.25073e-08
3.79002e-08
3.48151e-08
3.27966e-08
3.18365e-08
3.13449e-08
3.09623e-08
3.03102e-08
2.96873e-08
2.93976e-08
2.92785e-08
2.90845e-08
2.90464e-08
2.90497e-08
2.92874e-08
3.00905e-08
3.08844e-08
3.23041e-08
3.31817e-08
3.4446e-08
3.67054e-08
3.93797e-08
3.96154e-08
3.82489e-08
4.49518e-08
3.57237e-08
3.62818e-08
3.58801e-08
3.18804e-08
2.69283e-08
2.33656e-08
2.03889e-08
1.82158e-08
1.66432e-08
1.59598e-08
1.50405e-08
1.43665e-08
1.40684e-08
1.38124e-08
1.35069e-08
1.32559e-08
1.35498e-08
1.38468e-08
1.34638e-08
1.41304e-08
1.86507e-08
2.08622e-08
2.09463e-08
3.30798e-08
5.28103e-08
6.36295e-08
8.41883e-08
1.22388e-07
1.42122e-07
1.56286e-07
1.82206e-07
2.04852e-07
2.17049e-07
2.22061e-07
2.27631e-07
2.31677e-07
2.45036e-07
2.46108e-07
2.27663e-07
2.14717e-07
2.39301e-07
2.64644e-07
2.39562e-07
2.21184e-07
2.21925e-07
2.46634e-07
2.44257e-07
2.08999e-07
1.8071e-07
1.78532e-07
2.012e-07
2.25272e-07
2.34186e-07
2.35963e-07
2.13265e-07
2.16663e-07
2.09157e-07
2.11198e-07
1.77458e-07
1.93042e-07
1.94576e-07
2.31301e-07
1.97406e-07
1.74247e-07
2.36771e-07
2.5083e-07
3.05603e-07
2.74665e-07
2.99916e-07
3.04835e-07
4.42909e-07
5.59589e-07
3.93779e-07
2.93925e-07
3.37524e-07
3.42125e-07
3.38902e-07
3.61493e-07
4.19006e-07
4.49011e-07
4.29135e-07
4.46825e-07
4.24793e-07
4.79416e-07
5.74285e-07
5.76608e-07
4.47491e-07
3.55323e-07
4.39367e-07
4.95662e-07
4.49094e-07
3.77397e-07
3.75945e-07
4.14114e-07
4.44425e-07
4.52921e-07
4.59336e-07
4.68405e-07
4.73668e-07
4.78954e-07
4.82781e-07
4.82085e-07
4.73619e-07
4.6861e-07
4.66278e-07
4.67818e-07
4.71268e-07
4.7565e-07
4.78552e-07
4.81204e-07
4.79545e-07
4.78794e-07
4.78814e-07
4.80022e-07
4.82797e-07
4.86453e-07
4.84126e-07
4.86943e-07
4.83252e-07
4.97563e-07
4.88528e-07
5.12081e-07
4.84651e-07
5.0553e-07
4.76668e-07
4.92002e-07
4.68587e-07
4.91355e-07
4.5007e-07
4.76218e-07
4.53798e-07
4.18594e-07
4.81325e-07
3.80344e-07
4.81472e-07
3.96773e-07
4.47328e-07
4.26879e-07
4.04947e-07
4.48202e-07
3.50652e-07
4.54873e-07
2.805e-07
4.35679e-07
1.72737e-07
3.49773e-07
6.04352e-08
1.53418e-07
6.45671e-09
3.1431e-08
1.94107e-09
2.1719e-08
4.54992e-09
5.76052e-08
1.72651e-07
9.03896e-07
3.20764e-06
3.04244e-06
9.2054e-06
1.36056e-05
1.01883e-05
4.06075e-06
7.06381e-07
5.60835e-08
3.17319e-08
2.98747e-08
2.91259e-08
2.87277e-08
2.84717e-08
2.8239e-08
2.80342e-08
2.78517e-08
2.77019e-08
2.75827e-08
2.74886e-08
2.74113e-08
2.73479e-08
2.7292e-08
2.72426e-08
2.72024e-08
2.71751e-08
2.71654e-08
2.71793e-08
2.71851e-08
2.71852e-08
2.71795e-08
2.71656e-08
2.71754e-08
2.72027e-08
2.72433e-08
2.72926e-08
2.73489e-08
2.74126e-08
2.74905e-08
2.75865e-08
2.77073e-08
2.78566e-08
2.80391e-08
2.82463e-08
2.84788e-08
2.87536e-08
2.89615e-08
2.92049e-08
2.99382e-08
3.19878e-08
3.4494e-08
3.01291e-08
2.08566e-08
1.40199e-08
1.51324e-08
7.58585e-08
6.17732e-08
5.54091e-08
6.23889e-08
4.28482e-08
4.7982e-08
4.4846e-08
4.41908e-08
4.48038e-08
4.66561e-08
4.20544e-08
4.92395e-08
4.09512e-08
5.0091e-08
4.09302e-08
5.10836e-08
3.9852e-08
5.41531e-08
3.70609e-08
5.61767e-08
4.00832e-08
4.77751e-08
5.09038e-08
3.88354e-08
5.90764e-08
3.53415e-08
6.21017e-08
3.70005e-08
5.52733e-08
4.55971e-08
4.70207e-08
5.06105e-08
4.64325e-08
4.99667e-08
4.82896e-08
4.94762e-08
4.93894e-08
4.97037e-08
4.98992e-08
5.01476e-08
5.03508e-08
5.04813e-08
5.07367e-08
5.08234e-08
5.1104e-08
5.12397e-08
5.14029e-08
5.15285e-08
5.16462e-08
5.18484e-08
5.19329e-08
5.21097e-08
5.22321e-08
5.22483e-08
5.23504e-08
5.25283e-08
5.26715e-08
5.26478e-08
5.26207e-08
5.26432e-08
5.26312e-08
5.28146e-08
5.29869e-08
5.31859e-08
5.3311e-08
5.31153e-08
5.31302e-08
5.29766e-08
5.29404e-08
5.2729e-08
5.24548e-08
5.23981e-08
5.2278e-08
5.21331e-08
5.19452e-08
5.20005e-08
5.23079e-08
5.11343e-08
4.87947e-08
4.83255e-08
5.00123e-08
5.08876e-08
5.03207e-08
4.89825e-08
4.83593e-08
4.71817e-08
4.67443e-08
4.61327e-08
4.4897e-08
4.39539e-08
4.28873e-08
4.16183e-08
4.04689e-08
4.07097e-08
3.96655e-08
3.72261e-08
3.48425e-08
3.38719e-08
3.32047e-08
3.4885e-08
3.40245e-08
3.39655e-08
3.25877e-08
3.22725e-08
3.37273e-08
3.38604e-08
3.41577e-08
3.36433e-08
3.38019e-08
3.39225e-08
3.42861e-08
3.43159e-08
3.42459e-08
3.4364e-08
3.44333e-08
3.44821e-08
3.45706e-08
3.47046e-08
3.47971e-08
3.47916e-08
3.46963e-08
3.46575e-08
3.477e-08
3.49387e-08
3.49978e-08
3.49614e-08
3.49735e-08
3.50449e-08
3.50904e-08
3.51299e-08
3.52738e-08
3.54478e-08
3.55876e-08
3.57317e-08
3.58708e-08
3.60011e-08
3.6151e-08
3.63941e-08
3.66999e-08
3.70348e-08
3.73517e-08
3.7607e-08
3.78536e-08
3.82078e-08
3.8714e-08
3.96041e-08
4.06472e-08
4.20175e-08
4.33084e-08
4.43542e-08
4.56269e-08
4.59617e-08
4.62575e-08
4.66649e-08
4.57712e-08
4.55698e-08
4.62697e-08
4.04138e-08
3.92447e-08
3.27592e-08
2.70245e-08
2.52917e-08
2.40765e-08
2.34721e-08
2.23224e-08
2.0805e-08
1.92411e-08
1.80585e-08
1.66177e-08
1.5726e-08
1.55072e-08
1.52382e-08
1.4892e-08
1.46079e-08
1.49598e-08
1.54884e-08
1.55942e-08
1.54142e-08
1.58173e-08
1.62536e-08
1.65139e-08
1.69425e-08
1.75379e-08
1.79874e-08
1.863e-08
1.92929e-08
1.95318e-08
1.96643e-08
2.00227e-08
2.02876e-08
2.0245e-08
2.04636e-08
2.05039e-08
2.04883e-08
2.0235e-08
1.99226e-08
1.97135e-08
1.97208e-08
2.03195e-08
2.03906e-08
1.99333e-08
1.98766e-08
2.04432e-08
2.10403e-08
2.02921e-08
1.92029e-08
1.89306e-08
1.90671e-08
1.9294e-08
1.97357e-08
2.00279e-08
1.97858e-08
1.94347e-08
1.94674e-08
1.97746e-08
1.95973e-08
1.92788e-08
1.9487e-08
1.9323e-08
1.92244e-08
1.88593e-08
1.88332e-08
2.00655e-08
2.02756e-08
2.01055e-08
2.02189e-08
2.09983e-08
2.11155e-08
2.38187e-08
2.89214e-08
3.00228e-08
3.0567e-08
3.17913e-08
3.23154e-08
3.31151e-08
3.43309e-08
3.5834e-08
3.66007e-08
3.68672e-08
3.75565e-08
3.81321e-08
3.99318e-08
4.34738e-08
4.3797e-08
4.18807e-08
4.08288e-08
4.40377e-08
4.61635e-08
4.51723e-08
4.40321e-08
4.47395e-08
4.63634e-08
4.76097e-08
4.85306e-08
4.94937e-08
5.05475e-08
5.14413e-08
5.23982e-08
5.33637e-08
5.40139e-08
5.44157e-08
5.48885e-08
5.55488e-08
5.63749e-08
5.72318e-08
5.80497e-08
5.87077e-08
5.93489e-08
5.98079e-08
6.02509e-08
6.06732e-08
6.11332e-08
6.15893e-08
6.20225e-08
6.21709e-08
6.25317e-08
6.26116e-08
6.33968e-08
6.31496e-08
6.40202e-08
6.30367e-08
6.37495e-08
6.24202e-08
6.36509e-08
6.16314e-08
6.31692e-08
6.30668e-08
5.71342e-08
7.07212e-08
4.90878e-08
7.29551e-08
5.40476e-08
5.72923e-08
7.34218e-08
4.14227e-08
9.07128e-08
3.34881e-08
9.92206e-08
3.02542e-08
9.75394e-08
3.03821e-08
8.72291e-08
3.32963e-08
6.6629e-08
4.16553e-08
4.30819e-08
5.87672e-08
3.21015e-08
7.61193e-08
2.60882e-08
8.10607e-08
1.53835e-08
1.27026e-07
1.78709e-09
8.96749e-07
9.27513e-08
3.11987e-06
1.01282e-05
1.03337e-05
5.39176e-06
1.56726e-06
1.48515e-07
3.79491e-08
3.04026e-08
2.9184e-08
2.87436e-08
2.8462e-08
2.82332e-08
2.80328e-08
2.78503e-08
2.77015e-08
2.75824e-08
2.74883e-08
2.74111e-08
2.73478e-08
2.72919e-08
2.72426e-08
2.72023e-08
2.7175e-08
2.71653e-08
2.71793e-08
2.71851e-08
2.71852e-08
2.71795e-08
2.71656e-08
2.71755e-08
2.72028e-08
2.72433e-08
2.72927e-08
2.7349e-08
2.74128e-08
2.74907e-08
2.75867e-08
2.77077e-08
2.78569e-08
2.80399e-08
2.82463e-08
2.84728e-08
2.87472e-08
2.89644e-08
2.91709e-08
2.94643e-08
2.96133e-08
3.29435e-08
4.7922e-08
6.52325e-08
6.4051e-08
4.18346e-08
1.95375e-08
4.03403e-08
3.37555e-08
3.91677e-08
4.04054e-08
3.97172e-08
4.18334e-08
3.99466e-08
4.34721e-08
3.90369e-08
4.56176e-08
3.79702e-08
4.74649e-08
3.72231e-08
4.88127e-08
3.6605e-08
5.04775e-08
3.54805e-08
5.27175e-08
3.48304e-08
5.23356e-08
3.7789e-08
4.70514e-08
4.39227e-08
4.17518e-08
4.93042e-08
3.79491e-08
5.30244e-08
3.7861e-08
5.02196e-08
4.25586e-08
4.59323e-08
4.56329e-08
4.51309e-08
4.60175e-08
4.56683e-08
4.61102e-08
4.60146e-08
4.62339e-08
4.62976e-08
4.6394e-08
4.64367e-08
4.65804e-08
4.65695e-08
4.66808e-08
4.6743e-08
4.67458e-08
4.68281e-08
4.68218e-08
4.6882e-08
4.6903e-08
4.68923e-08
4.69446e-08
4.68727e-08
4.6854e-08
4.68278e-08
4.678e-08
4.66661e-08
4.65967e-08
4.65209e-08
4.64212e-08
4.63708e-08
4.62485e-08
4.60975e-08
4.59463e-08
4.57188e-08
4.55268e-08
4.52489e-08
4.4997e-08
4.46971e-08
4.43323e-08
4.40067e-08
4.36121e-08
4.31963e-08
4.2759e-08
4.22914e-08
4.17638e-08
4.09996e-08
4.04214e-08
4.00946e-08
3.97886e-08
3.91582e-08
3.84767e-08
3.79241e-08
3.72202e-08
3.65959e-08
3.59034e-08
3.5142e-08
3.43654e-08
3.36528e-08
3.28452e-08
3.18305e-08
3.10446e-08
3.05224e-08
3.03205e-08
2.97124e-08
2.93605e-08
2.86824e-08
2.85832e-08
2.84626e-08
2.89735e-08
2.91286e-08
2.91316e-08
2.89971e-08
2.91728e-08
2.96344e-08
2.98613e-08
3.00523e-08
3.01003e-08
3.03535e-08
3.03413e-08
3.06639e-08
3.07645e-08
3.08443e-08
3.0862e-08
3.0986e-08
3.11133e-08
3.12932e-08
3.14192e-08
3.14941e-08
3.15235e-08
3.1562e-08
3.16764e-08
3.18281e-08
3.20116e-08
3.21701e-08
3.23279e-08
3.24955e-08
3.26686e-08
3.28243e-08
3.29925e-08
3.31682e-08
3.33117e-08
3.34166e-08
3.34337e-08
3.33244e-08
3.3067e-08
3.27296e-08
3.23507e-08
3.20124e-08
3.17807e-08
3.17645e-08
3.19862e-08
3.24611e-08
3.30653e-08
3.37594e-08
3.45315e-08
3.50787e-08
3.57454e-08
3.64242e-08
3.72199e-08
3.82183e-08
3.93464e-08
4.05116e-08
4.21663e-08
4.21899e-08
4.05692e-08
4.19428e-08
4.11837e-08
4.11456e-08
3.73741e-08
3.26e-08
2.78601e-08
2.45347e-08
2.19492e-08
1.99896e-08
1.84289e-08
1.72194e-08
1.58864e-08
1.52087e-08
1.48135e-08
1.42767e-08
1.36475e-08
1.35142e-08
1.36807e-08
1.36151e-08
1.33956e-08
1.34409e-08
1.39075e-08
1.42435e-08
1.45273e-08
1.50289e-08
1.56282e-08
1.59865e-08
1.61214e-08
1.64545e-08
1.65741e-08
1.65001e-08
1.66612e-08
1.66681e-08
1.67266e-08
1.68266e-08
1.66714e-08
1.64006e-08
1.63289e-08
1.64752e-08
1.63772e-08
1.62015e-08
1.63898e-08
1.64137e-08
1.62722e-08
1.6474e-08
1.67943e-08
1.67047e-08
1.65372e-08
1.64578e-08
1.62972e-08
1.60774e-08
1.61958e-08
1.63253e-08
1.62336e-08
1.59073e-08
1.58646e-08
1.61577e-08
1.63766e-08
1.60993e-08
1.60205e-08
1.57721e-08
1.55779e-08
1.56501e-08
1.59988e-08
1.58755e-08
1.58621e-08
1.57274e-08
1.55099e-08
1.60175e-08
1.61771e-08
1.5966e-08
1.62355e-08
1.82646e-08
2.26521e-08
2.551e-08
2.63354e-08
2.67279e-08
2.72077e-08
2.76856e-08
2.8075e-08
2.83806e-08
2.87106e-08
2.90496e-08
2.95468e-08
3.00414e-08
3.08507e-08
3.16899e-08
3.21951e-08
3.25399e-08
3.33146e-08
3.42126e-08
3.46823e-08
3.49027e-08
3.52657e-08
3.5783e-08
3.62003e-08
3.66325e-08
3.72253e-08
3.78308e-08
3.83455e-08
3.88553e-08
3.93727e-08
3.986e-08
4.03345e-08
4.08053e-08
4.12895e-08
4.17665e-08
4.22197e-08
4.26284e-08
4.30046e-08
4.33953e-08
4.37921e-08
4.41601e-08
4.44622e-08
4.47539e-08
4.50212e-08
4.52707e-08
4.54792e-08
4.56656e-08
4.57562e-08
4.58841e-08
4.58942e-08
4.59459e-08
4.58221e-08
4.59408e-08
4.55876e-08
4.60167e-08
4.56821e-08
4.50742e-08
4.75439e-08
4.20166e-08
4.98508e-08
4.19944e-08
4.45564e-08
5.20265e-08
3.32318e-08
6.49625e-08
2.7937e-08
6.70859e-08
2.95815e-08
5.98019e-08
3.61816e-08
4.80374e-08
4.64967e-08
3.68137e-08
5.86778e-08
2.80351e-08
6.95528e-08
2.30151e-08
7.52566e-08
2.06598e-08
7.5649e-08
1.83255e-08
7.77319e-08
1.52584e-08
8.68595e-08
1.10239e-08
1.10966e-07
5.93425e-08
5.98841e-09
5.27175e-06
8.0242e-06
5.34797e-06
1.99669e-06
2.83191e-07
4.80849e-08
3.14245e-08
2.92785e-08
2.87626e-08
2.84565e-08
2.82293e-08
2.803e-08
2.78491e-08
2.77012e-08
2.75822e-08
2.74882e-08
2.74109e-08
2.73477e-08
2.72918e-08
2.72425e-08
2.72022e-08
2.7175e-08
2.71653e-08
2.71793e-08
2.7185e-08
2.71852e-08
2.71795e-08
2.71657e-08
2.71755e-08
2.72029e-08
2.72433e-08
2.72928e-08
2.73491e-08
2.74129e-08
2.74909e-08
2.75871e-08
2.7708e-08
2.7857e-08
2.80407e-08
2.8247e-08
2.84708e-08
2.87272e-08
2.89451e-08
2.92215e-08
3.00051e-08
3.00034e-08
2.36581e-08
1.38202e-08
1.41694e-08
2.43146e-08
3.83939e-08
4.53138e-08
3.12971e-08
4.22605e-08
3.45111e-08
4.09381e-08
3.67304e-08
4.03821e-08
3.82878e-08
3.98706e-08
3.97749e-08
3.91498e-08
4.12376e-08
3.83712e-08
4.2702e-08
3.75329e-08
4.43069e-08
3.65006e-08
4.62524e-08
3.5243e-08
4.81784e-08
3.47022e-08
4.84588e-08
3.60152e-08
4.66809e-08
3.84013e-08
4.41672e-08
4.19858e-08
4.04782e-08
4.55083e-08
3.94749e-08
4.5023e-08
4.14738e-08
4.34404e-08
4.29178e-08
4.31138e-08
4.33461e-08
4.33946e-08
4.35053e-08
4.35807e-08
4.36533e-08
4.37333e-08
4.37692e-08
4.38847e-08
4.38832e-08
4.39924e-08
4.4036e-08
4.40365e-08
4.40965e-08
4.40505e-08
4.40727e-08
4.4076e-08
4.40128e-08
4.40488e-08
4.39518e-08
4.38932e-08
4.38191e-08
4.37482e-08
4.36034e-08
4.35491e-08
4.34575e-08
4.33484e-08
4.32894e-08
4.31277e-08
4.29175e-08
4.27454e-08
4.25072e-08
4.22907e-08
4.19613e-08
4.16939e-08
4.14519e-08
4.11144e-08
4.07816e-08
4.03667e-08
3.99533e-08
3.95239e-08
3.90441e-08
3.84903e-08
3.77898e-08
3.73065e-08
3.69183e-08
3.6509e-08
3.57812e-08
3.50632e-08
3.45049e-08
3.37911e-08
3.32457e-08
3.26104e-08
3.19199e-08
3.12285e-08
3.05662e-08
2.98913e-08
2.91067e-08
2.83278e-08
2.75637e-08
2.73426e-08
2.70625e-08
2.69768e-08
2.66358e-08
2.66297e-08
2.61484e-08
2.65931e-08
2.68653e-08
2.71962e-08
2.72746e-08
2.73018e-08
2.75834e-08
2.77827e-08
2.8125e-08
2.81869e-08
2.85572e-08
2.85442e-08
2.875e-08
2.89531e-08
2.91474e-08
2.92347e-08
2.93376e-08
2.94148e-08
2.95367e-08
2.97167e-08
2.98482e-08
2.99656e-08
3.00537e-08
3.01258e-08
3.02185e-08
3.03425e-08
3.05042e-08
3.06946e-08
3.09077e-08
3.11447e-08
3.14049e-08
3.16928e-08
3.20086e-08
3.2313e-08
3.25476e-08
3.27023e-08
3.27874e-08
3.28451e-08
3.29723e-08
3.32414e-08
3.37096e-08
3.43844e-08
3.52926e-08
3.61301e-08
3.67933e-08
3.73112e-08
3.77852e-08
3.84311e-08
3.91514e-08
3.99461e-08
4.09854e-08
4.20596e-08
4.27957e-08
4.31695e-08
4.32005e-08
4.3107e-08
4.27114e-08
4.41636e-08
3.99084e-08
3.55169e-08
3.14099e-08
2.90696e-08
2.76321e-08
2.6107e-08
2.45459e-08
2.26676e-08
2.09889e-08
1.94318e-08
1.80297e-08
1.67851e-08
1.62583e-08
1.58475e-08
1.52148e-08
1.48317e-08
1.49374e-08
1.49836e-08
1.49019e-08
1.46094e-08
1.47446e-08
1.48561e-08
1.47718e-08
1.47059e-08
1.50786e-08
1.53228e-08
1.53834e-08
1.55202e-08
1.56819e-08
1.55793e-08
1.56066e-08
1.56418e-08
1.55439e-08
1.55964e-08
1.55518e-08
1.53683e-08
1.5353e-08
1.54939e-08
1.5376e-08
1.51124e-08
1.51508e-08
1.52471e-08
1.51484e-08
1.52122e-08
1.55206e-08
1.55166e-08
1.52619e-08
1.5454e-08
1.54817e-08
1.53654e-08
1.51985e-08
1.50765e-08
1.4882e-08
1.46194e-08
1.44449e-08
1.478e-08