/*--------------------------------*- C++ -*----------------------------------*\
| =========                 |                                                 |
| \\      /  F ield         | OpenFOAM: The Open Source CFD Toolbox           |
|  \\    /   O peration     | Version:  v2006                                 |
|   \\  /    A nd           | Website:  www.openfoam.com                      |
|    \\/     M anipulation  |                                                 |
\*---------------------------------------------------------------------------*/
FoamFile
{
    version     2.0;
    format      ascii;
    class       volScalarField;
    location    "185";
    object      nuTildaMean;
}
// * * * * * * * * * * * * * * * * * * * * * * * * * * * * * * * * * * * * * //

dimensions      [0 2 -1 0 0 0 0];


internalField   nonuniform List<scalar> 
93840
(
3.97801e-07
3.978e-07
3.978e-07
3.978e-07
3.978e-07
3.978e-07
3.978e-07
3.97801e-07
3.97801e-07
3.97803e-07
3.97804e-07
3.97807e-07
3.97812e-07
3.97821e-07
3.97835e-07
3.97882e-07
3.98139e-07
3.98962e-07
4.00839e-07
4.04194e-07
4.19004e-07
5.04779e-07
6.58149e-07
2.50663e-07
1.74374e-08
3.41672e-06
6.39243e-06
8.47223e-06
9.48831e-06
1.029e-05
1.09658e-05
1.06328e-05
1.1627e-05
1.07126e-05
1.12754e-05
1.07398e-05
1.108e-05
1.07072e-05
1.0875e-05
1.06605e-05
1.07093e-05
1.05936e-05
1.05686e-05
1.04956e-05
1.0442e-05
1.03715e-05
1.0337e-05
1.02477e-05
1.02292e-05
1.01434e-05
1.01079e-05
1.00432e-05
9.98999e-06
9.92691e-06
9.9553e-06
9.8885e-06
9.87566e-06
9.78633e-06
9.75321e-06
9.70653e-06
9.69659e-06
9.63772e-06
9.63812e-06
9.62721e-06
9.62139e-06
9.61311e-06
9.62963e-06
9.64454e-06
9.65217e-06
9.67062e-06
9.69868e-06
9.72425e-06
9.76138e-06
9.80843e-06
9.8533e-06
9.90458e-06
9.96366e-06
1.00272e-05
1.01022e-05
1.01785e-05
1.02544e-05
1.03363e-05
1.0429e-05
1.05363e-05
1.06499e-05
1.07633e-05
1.08838e-05
1.10063e-05
1.11326e-05
1.12726e-05
1.14329e-05
1.1607e-05
1.17861e-05
1.19727e-05
1.21706e-05
1.23789e-05
1.25976e-05
1.28159e-05
1.3053e-05
1.33032e-05
1.35719e-05
1.38137e-05
1.40743e-05
1.44745e-05
1.489e-05
1.50308e-05
1.52259e-05
1.55319e-05
1.5942e-05
1.62787e-05
1.66291e-05
1.69647e-05
1.7307e-05
1.76918e-05
1.80566e-05
1.84077e-05
1.87386e-05
1.91129e-05
1.94242e-05
1.97433e-05
1.99626e-05
2.02833e-05
2.04036e-05
2.06379e-05
2.05541e-05
2.06431e-05
2.06132e-05
2.0476e-05
2.05568e-05
2.04205e-05
2.03435e-05
2.02351e-05
2.01329e-05
2.00677e-05
1.99724e-05
1.98516e-05
1.97428e-05
1.96631e-05
1.95728e-05
1.9521e-05
1.94536e-05
1.93678e-05
1.92616e-05
1.91952e-05
1.91221e-05
1.90562e-05
1.89912e-05
1.89114e-05
1.88148e-05
1.87092e-05
1.86148e-05
1.85147e-05
1.84009e-05
1.82772e-05
1.81455e-05
1.80062e-05
1.78536e-05
1.76843e-05
1.75002e-05
1.73176e-05
1.71467e-05
1.69543e-05
1.67259e-05
1.64707e-05
1.61823e-05
1.58552e-05
1.54921e-05
1.50853e-05
1.45767e-05
1.38417e-05
1.27339e-05
1.11005e-05
8.92015e-06
6.56467e-06
4.6177e-06
3.35906e-06
2.47172e-06
1.48647e-06
1.09811e-06
7.35484e-07
4.94183e-07
4.78937e-07
5.98608e-07
2.35307e-07
8.7044e-07
1.35722e-06
2.69125e-07
8.82383e-07
1.82956e-06
2.13054e-06
3.35206e-06
4.7804e-06
5.8626e-06
7.84645e-06
1.08022e-05
1.49332e-05
1.99883e-05
2.4233e-05
2.67502e-05
2.80444e-05
2.85725e-05
2.86895e-05
2.8631e-05
2.85256e-05
2.84457e-05
2.83148e-05
2.81296e-05
2.79591e-05
2.77944e-05
2.76082e-05
2.74578e-05
2.73398e-05
2.72239e-05
2.7124e-05
2.70257e-05
2.68951e-05
2.67411e-05
2.66322e-05
2.65372e-05
2.64495e-05
2.64851e-05
2.65178e-05
2.64352e-05
2.63202e-05
2.61964e-05
2.60537e-05
2.59198e-05
2.57806e-05
2.56373e-05
2.5489e-05
2.53707e-05
2.54381e-05
2.54353e-05
2.54664e-05
2.54587e-05
2.53844e-05
2.52796e-05
2.51732e-05
2.50458e-05
2.49653e-05
2.48729e-05
2.48319e-05
2.47393e-05
2.47242e-05
2.46423e-05
2.45998e-05
2.44546e-05
2.45442e-05
2.42268e-05
2.4007e-05
2.3823e-05
2.31565e-05
2.23499e-05
2.10731e-05
1.932e-05
1.75853e-05
1.6728e-05
1.64953e-05
1.64337e-05
1.63509e-05
1.62495e-05
1.60915e-05
1.59162e-05
1.56898e-05
1.54419e-05
1.51649e-05
1.49072e-05
1.46372e-05
1.41696e-05
1.37487e-05
1.3552e-05
1.34351e-05
1.3115e-05
1.2663e-05
1.24129e-05
1.22538e-05
1.20464e-05
1.17507e-05
1.14301e-05
1.11451e-05
1.08671e-05
1.05843e-05
1.02945e-05
1.00065e-05
9.71553e-06
9.41773e-06
9.12826e-06
8.84573e-06
8.56253e-06
8.27608e-06
7.98992e-06
7.70415e-06
7.41794e-06
7.13343e-06
6.8495e-06
6.56764e-06
6.28928e-06
6.01254e-06
5.73244e-06
5.44994e-06
5.17036e-06
4.90339e-06
4.64934e-06
4.40531e-06
4.1684e-06
3.94994e-06
3.75507e-06
3.5922e-06
3.45739e-06
3.35073e-06
3.25487e-06
3.17221e-06
3.09828e-06
3.03431e-06
2.97613e-06
2.92536e-06
2.87615e-06
2.83305e-06
2.78998e-06
2.75395e-06
2.71638e-06
2.68496e-06
2.65018e-06
2.62435e-06
2.59463e-06
2.57541e-06
2.55873e-06
2.55538e-06
2.56209e-06
2.58761e-06
2.63395e-06
2.70258e-06
3.06696e-06
3.53269e-06
4.17079e-06
3.01267e-06
6.05659e-06
8.38581e-06
8.9189e-06
9.99301e-06
1.01644e-05
9.9272e-06
8.77102e-06
3.12521e-06
6.48096e-07
1.6347e-07
4.26695e-07
4.30895e-07
4.09618e-07
4.01869e-07
3.99167e-07
3.9818e-07
3.97885e-07
3.97835e-07
3.97819e-07
3.97812e-07
3.97807e-07
3.97804e-07
3.97803e-07
3.97801e-07
3.97801e-07
3.978e-07
3.978e-07
3.978e-07
3.978e-07
3.978e-07
3.978e-07
3.97801e-07
3.978e-07
3.978e-07
3.978e-07
3.978e-07
3.978e-07
3.978e-07
3.978e-07
3.97801e-07
3.97801e-07
3.97802e-07
3.97804e-07
3.97807e-07
3.97812e-07
3.97818e-07
3.97831e-07
3.97871e-07
3.98097e-07
3.98833e-07
4.00647e-07
4.02366e-07
3.92722e-07
3.56749e-07
4.03791e-07
7.17623e-07
6.16005e-07
4.07073e-07
9.90352e-07
4.31953e-06
4.9974e-06
6.3758e-06
7.14847e-06
7.36706e-06
7.67725e-06
7.31587e-06
7.65922e-06
7.27948e-06
7.67504e-06
7.25831e-06
7.64983e-06
7.30018e-06
7.57935e-06
7.40322e-06
7.48266e-06
7.45454e-06
7.46565e-06
7.39218e-06
7.61224e-06
7.23477e-06
7.6676e-06
7.33848e-06
7.50598e-06
7.43441e-06
7.54322e-06
7.3424e-06
7.6886e-06
7.28562e-06
7.63655e-06
7.34938e-06
7.61141e-06
7.42288e-06
7.6524e-06
7.47757e-06
7.6617e-06
7.58299e-06
7.66202e-06
7.65867e-06
7.6971e-06
7.71032e-06
7.7375e-06
7.76689e-06
7.79687e-06
7.82867e-06
7.86775e-06
7.89791e-06
7.93745e-06
7.97474e-06
8.01494e-06
8.05758e-06
8.09384e-06
8.13593e-06
8.18251e-06
8.23618e-06
8.29443e-06
8.35062e-06
8.40646e-06
8.4671e-06
8.53122e-06
8.6022e-06
8.6842e-06
8.77636e-06
8.87151e-06
8.96649e-06
9.06908e-06
9.17205e-06
9.28891e-06
9.40151e-06
9.52164e-06
9.65231e-06
9.7904e-06
9.93519e-06
1.00729e-05
1.02417e-05
1.04554e-05
1.06326e-05
1.06884e-05
1.07718e-05
1.10046e-05
1.12451e-05
1.14277e-05
1.15785e-05
1.17765e-05
1.19593e-05
1.21628e-05
1.23649e-05
1.25289e-05
1.26968e-05
1.28274e-05
1.29333e-05
1.29478e-05
1.29733e-05
1.29392e-05
1.29323e-05
1.28488e-05
1.27825e-05
1.26123e-05
1.25765e-05
1.23075e-05
1.22889e-05
1.20643e-05
1.18794e-05
1.17333e-05
1.14818e-05
1.1436e-05
1.12804e-05
1.1205e-05
1.10834e-05
1.10164e-05
1.08994e-05
1.07997e-05
1.06525e-05
1.0517e-05
1.03647e-05
1.02626e-05
1.00858e-05
9.96702e-06
9.81788e-06
9.6712e-06
9.52715e-06
9.383e-06
9.27084e-06
9.13628e-06
9.0248e-06
8.91503e-06
8.7937e-06
8.67557e-06
8.55657e-06
8.42935e-06
8.28715e-06
8.14074e-06
7.98635e-06
7.79591e-06
7.54519e-06
7.18767e-06
6.74756e-06
6.1614e-06
5.48788e-06
4.75836e-06
3.90993e-06
2.96701e-06
2.08722e-06
1.35305e-06
8.02815e-07
4.43954e-07
2.60073e-07
2.09407e-07
2.13655e-07
2.1902e-07
2.49756e-07
2.87788e-07
3.21941e-07
3.70999e-07
3.72337e-07
3.5697e-07
4.47464e-07
3.32477e-07
3.32127e-07
4.31068e-07
4.35033e-07
4.08507e-07
3.63107e-07
3.37136e-07
3.94909e-07
4.05727e-07
4.63906e-07
6.2665e-07
9.26795e-07
1.48832e-06
2.44836e-06
3.76224e-06
5.33494e-06
6.77231e-06
8.07019e-06
9.25122e-06
1.03111e-05
1.12505e-05
1.19472e-05
1.23898e-05
1.2698e-05
1.29297e-05
1.30363e-05
1.31142e-05
1.32201e-05
1.32861e-05
1.33593e-05
1.34658e-05
1.35845e-05
1.36628e-05
1.37342e-05
1.38064e-05
1.38652e-05
1.39433e-05
1.41046e-05
1.42105e-05
1.42419e-05
1.42951e-05
1.43657e-05
1.43842e-05
1.43574e-05
1.43371e-05
1.43851e-05
1.43862e-05
1.44736e-05
1.4514e-05
1.45675e-05
1.46303e-05
1.4698e-05
1.46984e-05
1.47114e-05
1.46664e-05
1.46758e-05
1.46641e-05
1.46963e-05
1.4641e-05
1.46942e-05
1.46872e-05
1.48243e-05
1.47165e-05
1.48018e-05
1.48381e-05
1.47477e-05
1.48281e-05
1.4628e-05
1.45506e-05
1.44418e-05
1.44571e-05
1.43216e-05
1.4133e-05
1.39973e-05
1.4e-05
1.39349e-05
1.38429e-05
1.37327e-05
1.36568e-05
1.35526e-05
1.34061e-05
1.3241e-05
1.30295e-05
1.29619e-05
1.28728e-05
1.26197e-05
1.22767e-05
1.20994e-05
1.21106e-05
1.20031e-05
1.17627e-05
1.15766e-05
1.15043e-05
1.14295e-05
1.13313e-05
1.12055e-05
1.10894e-05
1.09786e-05
1.08753e-05
1.07677e-05
1.06543e-05
1.0549e-05
1.04409e-05
1.03346e-05
1.02273e-05
1.01263e-05
1.00292e-05
9.93594e-06
9.84231e-06
9.75187e-06
9.66002e-06
9.57233e-06
9.48142e-06
9.39433e-06
9.31299e-06
9.23451e-06
9.15561e-06
9.08227e-06
8.99928e-06
8.93558e-06
8.84971e-06
8.81165e-06
8.70967e-06
8.68615e-06
8.57656e-06
8.54536e-06
8.46333e-06
8.41027e-06
8.34159e-06
8.28735e-06
8.20726e-06
8.15936e-06
8.07333e-06
8.04166e-06
7.94597e-06
7.92521e-06
7.83152e-06
7.81092e-06
7.71152e-06
7.693e-06
7.60202e-06
7.59139e-06
7.51798e-06
7.50277e-06
7.44014e-06
7.3585e-06
7.24114e-06
7.03282e-06
6.71466e-06
6.08804e-06
5.69317e-06
5.79164e-06
6.03278e-06
7.36929e-06
8.08558e-06
9.82171e-06
1.0765e-05
1.18004e-05
1.33051e-05
9.77251e-06
3.35488e-06
5.30837e-07
3.26181e-07
4.01019e-07
4.08298e-07
4.02621e-07
3.99451e-07
3.98251e-07
3.97899e-07
3.97834e-07
3.97818e-07
3.97812e-07
3.97807e-07
3.97804e-07
3.97802e-07
3.97801e-07
3.97801e-07
3.978e-07
3.978e-07
3.978e-07
3.978e-07
3.978e-07
3.978e-07
3.97801e-07
3.97801e-07
3.978e-07
3.978e-07
3.978e-07
3.978e-07
3.978e-07
3.978e-07
3.97801e-07
3.97801e-07
3.97803e-07
3.97804e-07
3.97807e-07
3.97811e-07
3.97818e-07
3.97833e-07
3.97859e-07
3.98044e-07
3.98684e-07
4.00611e-07
4.06394e-07
4.22359e-07
4.42857e-07
4.00515e-07
3.01135e-07
4.06011e-07
2.91285e-07
1.48605e-07
4.81141e-07
5.0449e-07
3.86647e-07
1.62447e-06
1.45081e-06
2.04809e-06
1.66765e-06
1.98709e-06
1.84741e-06
1.87704e-06
1.96389e-06
1.84773e-06
2.03668e-06
1.8386e-06
2.12361e-06
1.79428e-06
2.23365e-06
1.76933e-06
2.24483e-06
1.90387e-06
2.13096e-06
2.06876e-06
2.09554e-06
2.12535e-06
2.0877e-06
2.23643e-06
2.03454e-06
2.37917e-06
1.98768e-06
2.3867e-06
2.07712e-06
2.39834e-06
2.19029e-06
2.46786e-06
2.26328e-06
2.50107e-06
2.38848e-06
2.49792e-06
2.48028e-06
2.52787e-06
2.53624e-06
2.56524e-06
2.59076e-06
2.61826e-06
2.64435e-06
2.67364e-06
2.69432e-06
2.72708e-06
2.74855e-06
2.77716e-06
2.80157e-06
2.81457e-06
2.84406e-06
2.87684e-06
2.91315e-06
2.94908e-06
2.97367e-06
2.99904e-06
3.03401e-06
3.06609e-06
3.11476e-06
3.17563e-06
3.23568e-06
3.2865e-06
3.33082e-06
3.3918e-06
3.44039e-06
3.5084e-06
3.55893e-06
3.62616e-06
3.69711e-06
3.78064e-06
3.86894e-06
3.96151e-06
4.07729e-06
4.19391e-06
4.18975e-06
4.12395e-06
4.20482e-06
4.48791e-06
4.59466e-06
4.71606e-06
4.72827e-06
4.86671e-06
4.94194e-06
5.08207e-06
5.19683e-06
5.25657e-06
5.32725e-06
5.35572e-06
5.4148e-06
5.39824e-06
5.38238e-06
5.21594e-06
5.13188e-06
4.97137e-06
4.9457e-06
4.7015e-06
4.82604e-06
4.45579e-06
4.50439e-06
4.31505e-06
4.26949e-06
4.33672e-06
4.07476e-06
4.12986e-06
3.97065e-06
4.02434e-06
3.93515e-06
3.93018e-06
3.83588e-06
3.83967e-06
3.78719e-06
3.73576e-06
3.67185e-06
3.65294e-06
3.61741e-06
3.57468e-06
3.51028e-06
3.43677e-06
3.38271e-06
3.32052e-06
3.26079e-06
3.17285e-06
3.0899e-06
2.98932e-06
2.87741e-06
2.74253e-06
2.58843e-06
2.43135e-06
2.243e-06
2.05007e-06
1.84037e-06
1.61065e-06
1.37404e-06
1.12875e-06
9.08235e-07
7.04188e-07
5.61534e-07
4.78402e-07
4.33435e-07
4.08062e-07
4.0608e-07
4.22899e-07
4.37123e-07
4.47158e-07
4.51739e-07
4.53308e-07
4.51154e-07
4.50028e-07
4.47374e-07
4.37531e-07
4.2697e-07
4.17149e-07
4.16715e-07
4.21885e-07
3.91828e-07
4.22984e-07
4.0638e-07
3.84924e-07
3.91318e-07
4.01375e-07
4.17151e-07
4.23467e-07
4.2946e-07
4.27087e-07
4.29414e-07
4.28548e-07
4.36669e-07
4.40322e-07
4.50257e-07
4.82403e-07
5.65511e-07
6.44372e-07
7.56843e-07
9.22601e-07
1.17952e-06
1.52917e-06
1.85098e-06
2.1963e-06
2.65581e-06
3.06983e-06
3.36167e-06
3.65238e-06
3.93168e-06
4.07791e-06
4.21243e-06
4.37827e-06
4.49035e-06
4.56857e-06
4.61429e-06
4.65363e-06
4.67866e-06
4.72003e-06
4.78883e-06
4.78171e-06
4.76985e-06
4.84078e-06
4.93345e-06
4.89739e-06
4.84777e-06
4.82455e-06
4.89347e-06
4.85878e-06
4.84821e-06
4.79794e-06
4.78971e-06
4.85789e-06
4.97285e-06
5.00857e-06
5.04605e-06
4.96751e-06
4.99116e-06
4.96013e-06
4.97313e-06
4.87064e-06
4.94771e-06
4.93826e-06
5.12034e-06
4.98915e-06
4.93092e-06
5.17224e-06
5.16129e-06
5.38891e-06
5.29615e-06
5.35874e-06
5.33655e-06
5.48785e-06
5.40678e-06
5.20844e-06
5.11737e-06
5.28706e-06
5.31146e-06
5.27732e-06
5.2753e-06
5.36164e-06
5.41686e-06
5.34362e-06
5.33416e-06
5.19566e-06
5.26709e-06
5.37642e-06
5.37661e-06
5.05539e-06
4.76696e-06
4.88029e-06
4.96954e-06
4.86589e-06
4.66477e-06
4.59954e-06
4.63132e-06
4.65005e-06
4.61795e-06
4.59084e-06
4.56776e-06
4.54364e-06
4.51239e-06
4.47562e-06
4.43769e-06
4.38377e-06
4.3342e-06
4.28526e-06
4.2456e-06
4.21265e-06
4.18331e-06
4.15564e-06
4.13245e-06
4.10201e-06
4.0751e-06
4.04642e-06
4.01922e-06
3.99901e-06
3.98334e-06
3.95743e-06
3.94157e-06
3.9041e-06
3.91094e-06
3.86715e-06
3.91424e-06
3.83551e-06
3.8917e-06
3.80918e-06
3.83625e-06
3.79385e-06
3.79965e-06
3.74075e-06
3.77497e-06
3.67293e-06
3.71207e-06
3.63268e-06
3.65146e-06
3.62146e-06
3.6e-06
3.60476e-06
3.55685e-06
3.5695e-06
3.50362e-06
3.51869e-06
3.44451e-06
3.44818e-06
3.34268e-06
3.2885e-06
3.16225e-06
2.92137e-06
2.76264e-06
2.20873e-06
1.94659e-06
1.45839e-06
1.6461e-06
1.47155e-06
2.61214e-06
2.97793e-06
5.48796e-06
6.55617e-06
8.78462e-06
1.31829e-05
1.34974e-05
7.54147e-06
2.22826e-06
5.96375e-07
4.09796e-07
4.0654e-07
4.02927e-07
3.99708e-07
3.98333e-07
3.9792e-07
3.97836e-07
3.97821e-07
3.97813e-07
3.97807e-07
3.97804e-07
3.97803e-07
3.97801e-07
3.97801e-07
3.978e-07
3.978e-07
3.978e-07
3.978e-07
3.978e-07
3.978e-07
3.97801e-07
3.978e-07
3.978e-07
3.978e-07
3.978e-07
3.978e-07
3.978e-07
3.978e-07
3.97801e-07
3.97801e-07
3.97802e-07
3.97804e-07
3.97807e-07
3.97812e-07
3.97819e-07
3.97834e-07
3.97856e-07
3.98015e-07
3.98522e-07
3.99646e-07
4.00851e-07
3.9944e-07
3.98948e-07
4.26617e-07
4.68916e-07
4.91563e-07
6.18852e-07
4.7571e-07
3.46663e-07
3.59732e-07
2.65504e-07
2.55647e-07
4.12099e-07
3.30265e-07
4.57096e-07
3.87965e-07
4.42744e-07
4.24912e-07
4.38326e-07
4.39988e-07
4.39553e-07
4.57171e-07
4.30844e-07
4.83342e-07
4.11227e-07
5.04833e-07
4.26805e-07
4.84059e-07
4.63646e-07
4.72974e-07
4.84805e-07
4.66125e-07
5.0767e-07
4.75358e-07
4.99775e-07
5.13138e-07
4.78074e-07
5.20586e-07
4.89157e-07
5.21042e-07
5.13972e-07
5.33093e-07
5.28001e-07
5.48513e-07
5.4546e-07
5.56411e-07
5.59795e-07
5.67559e-07
5.68961e-07
5.74752e-07
5.80461e-07
5.8526e-07
5.90415e-07
5.9607e-07
5.98785e-07
6.04191e-07
6.08786e-07
6.13417e-07
6.18078e-07
6.20068e-07
6.23484e-07
6.29424e-07
6.36405e-07
6.43479e-07
6.47164e-07
6.49295e-07
6.54187e-07
6.58146e-07
6.65658e-07
6.77244e-07
6.89288e-07
6.98431e-07
7.02848e-07
7.11673e-07
7.18584e-07
7.28789e-07
7.35276e-07
7.43132e-07
7.53648e-07
7.66997e-07
7.80219e-07
7.93456e-07
8.1385e-07
8.4098e-07
8.34872e-07
7.94423e-07
7.97005e-07
8.6884e-07
9.01348e-07
9.17798e-07
9.03464e-07
9.25549e-07
9.25502e-07
9.49716e-07
9.68164e-07
9.69231e-07
9.75903e-07
9.76131e-07
9.84169e-07
9.77184e-07
9.79535e-07
9.26564e-07
8.75242e-07
8.20958e-07
8.26633e-07
7.61938e-07
8.2786e-07
7.38342e-07
7.40331e-07
6.92498e-07
6.85599e-07
7.39976e-07
6.86126e-07
6.96479e-07
6.59426e-07
6.77211e-07
6.69742e-07
6.76352e-07
6.55833e-07
6.59035e-07
6.59284e-07
6.54449e-07
6.41484e-07
6.40102e-07
6.41337e-07
6.41213e-07
6.34847e-07
6.21787e-07
6.12899e-07
6.06097e-07
6.00068e-07
5.86768e-07
5.72213e-07
5.57495e-07
5.43556e-07
5.25595e-07
5.03724e-07
4.87837e-07
4.69958e-07
4.53035e-07
4.38063e-07
4.2406e-07
4.13706e-07
4.06012e-07
4.01063e-07
3.97564e-07
3.94665e-07
3.90867e-07
3.86727e-07
3.8354e-07
3.81391e-07
3.79306e-07
3.77656e-07
3.76063e-07
3.74818e-07
3.75028e-07
3.75403e-07
3.77343e-07
3.78361e-07
3.79483e-07
3.83606e-07
3.89208e-07
3.90652e-07
3.91237e-07
4.04672e-07
3.98876e-07
4.15475e-07
4.17691e-07
4.09596e-07
4.01375e-07
3.96144e-07
3.94068e-07
3.94646e-07
3.95619e-07
3.97082e-07
3.98196e-07
3.98394e-07
3.97826e-07
3.97367e-07
3.9822e-07
3.99245e-07
3.99897e-07
4.00822e-07
4.03563e-07
4.14514e-07
4.33615e-07
4.40555e-07
4.64051e-07
5.20367e-07
5.56575e-07
5.8731e-07
6.46941e-07
6.92845e-07
7.03837e-07
7.36534e-07
7.73568e-07
7.85025e-07
7.91306e-07
7.97911e-07
8.03229e-07
8.10731e-07
8.29211e-07
8.25024e-07
7.98896e-07
7.99639e-07
8.37915e-07
8.486e-07
8.11793e-07
8.0328e-07
8.16083e-07
8.36307e-07
8.22638e-07
7.88537e-07
7.63657e-07
7.67424e-07
8.01219e-07
8.31867e-07
8.37419e-07
8.30872e-07
8.14805e-07
8.28161e-07
8.11192e-07
8.045e-07
7.75788e-07
8.13254e-07
8.19184e-07
8.45925e-07
7.92906e-07
7.82533e-07
8.7395e-07
8.94205e-07
9.49111e-07
9.05568e-07
9.28445e-07
9.35785e-07
1.00176e-06
9.52195e-07
8.56394e-07
8.35096e-07
8.90855e-07
8.8663e-07
8.80047e-07
9.0175e-07
9.45086e-07
9.59009e-07
9.39498e-07
9.509e-07
9.31263e-07
9.70106e-07
1.03527e-06
1.02795e-06
9.26668e-07
8.55732e-07
9.24594e-07
9.63582e-07
9.23346e-07
8.6538e-07
8.633e-07
8.92012e-07
9.10362e-07
9.13298e-07
9.16122e-07
9.20907e-07
9.22365e-07
9.24446e-07
9.25623e-07
9.2324e-07
9.16162e-07
9.11397e-07
9.08446e-07
9.08511e-07
9.10132e-07
9.1256e-07
9.14068e-07
9.15819e-07
9.14644e-07
9.14493e-07
9.1462e-07
9.15283e-07
9.17215e-07
9.20034e-07
9.18885e-07
9.21107e-07
9.18891e-07
9.29756e-07
9.2567e-07
9.45261e-07
9.29253e-07
9.48157e-07
9.30105e-07
9.44977e-07
9.30243e-07
9.50827e-07
9.21173e-07
9.4456e-07
9.27779e-07
9.01953e-07
9.54397e-07
8.71032e-07
9.58287e-07
8.86466e-07
9.3237e-07
9.14366e-07
8.98047e-07
9.34253e-07
8.53386e-07
9.44954e-07
7.96166e-07
9.40279e-07
6.97285e-07
8.92519e-07
5.46776e-07
7.32121e-07
3.48836e-07
5.15018e-07
2.60159e-07
4.64225e-07
3.03049e-07
5.72121e-07
7.02188e-07
1.21561e-06
2.97815e-06
2.64956e-06
8.63328e-06
1.30659e-05
9.83465e-06
4.02024e-06
1.13962e-06
4.90079e-07
4.12886e-07
4.03605e-07
3.99963e-07
3.9841e-07
3.97937e-07
3.97839e-07
3.97823e-07
3.97813e-07
3.97807e-07
3.97804e-07
3.97802e-07
3.97801e-07
3.97801e-07
3.978e-07
3.978e-07
3.978e-07
3.978e-07
3.978e-07
3.978e-07
3.978e-07
3.978e-07
3.978e-07
3.978e-07
3.978e-07
3.978e-07
3.978e-07
3.978e-07
3.97801e-07
3.97801e-07
3.97803e-07
3.97804e-07
3.97806e-07
3.97811e-07
3.97817e-07
3.97829e-07
3.97851e-07
3.97994e-07
3.98434e-07
3.9957e-07
4.02327e-07
4.08998e-07
4.16117e-07
4.02271e-07
3.70875e-07
3.36669e-07
3.3327e-07
5.1177e-07
4.92547e-07
4.67871e-07
4.89863e-07
4.48848e-07
4.56566e-07
4.49096e-07
4.5404e-07
4.43228e-07
4.59714e-07
4.39202e-07
4.62188e-07
4.38099e-07
4.63061e-07
4.36528e-07
4.67032e-07
4.31083e-07
4.74267e-07
4.27234e-07
4.68725e-07
4.45151e-07
4.43714e-07
4.70995e-07
4.24843e-07
4.83873e-07
4.18712e-07
4.84431e-07
4.29999e-07
4.64745e-07
4.53105e-07
4.49067e-07
4.60361e-07
4.50469e-07
4.57566e-07
4.54593e-07
4.56667e-07
4.56747e-07
4.57378e-07
4.57829e-07
4.58382e-07
4.58856e-07
4.59169e-07
4.59829e-07
4.60049e-07
4.60782e-07
4.6125e-07
4.61731e-07
4.6219e-07
4.62584e-07
4.63187e-07
4.63514e-07
4.64059e-07
4.64596e-07
4.649e-07
4.65381e-07
4.66083e-07
4.66803e-07
4.67173e-07
4.67507e-07
4.6794e-07
4.68257e-07
4.69058e-07
4.69853e-07
4.70722e-07
4.7152e-07
4.71598e-07
4.72221e-07
4.72506e-07
4.73024e-07
4.73305e-07
4.73368e-07
4.73904e-07
4.74322e-07
4.74734e-07
4.75118e-07
4.76069e-07
4.77885e-07
4.7681e-07
4.72561e-07
4.71859e-07
4.76166e-07
4.78894e-07
4.78239e-07
4.7631e-07
4.75837e-07
4.74053e-07
4.73705e-07
4.73228e-07
4.71318e-07
4.69986e-07
4.68202e-07
4.66244e-07
4.63603e-07
4.63864e-07
4.61654e-07
4.56377e-07
4.50477e-07
4.48413e-07
4.44107e-07
4.47466e-07
4.44431e-07
4.43658e-07
4.39581e-07
4.36771e-07
4.39322e-07
4.37874e-07
4.37422e-07
4.35024e-07
4.34364e-07
4.33844e-07
4.33592e-07
4.32315e-07
4.31213e-07
4.30811e-07
4.30211e-07
4.29232e-07
4.28235e-07
4.27532e-07
4.27022e-07
4.26363e-07
4.25323e-07
4.24271e-07
4.23519e-07
4.22944e-07
4.22193e-07
4.21191e-07
4.20269e-07
4.19585e-07
4.18871e-07
4.18012e-07
4.17391e-07
4.16864e-07
4.16161e-07
4.15389e-07
4.14624e-07
4.13854e-07
4.13017e-07
4.12358e-07
4.1188e-07
4.11514e-07
4.11089e-07
4.10414e-07
4.09575e-07
4.0883e-07
4.08249e-07
4.08445e-07
4.08946e-07
4.10168e-07
4.11354e-07
4.11844e-07
4.12425e-07
4.10787e-07
4.08682e-07
4.07299e-07
4.03252e-07
4.01943e-07
4.05339e-07
3.95443e-07
3.91988e-07
3.82784e-07
3.82639e-07
3.91365e-07
3.97938e-07
4.02403e-07
4.04523e-07
4.05372e-07
4.0482e-07
4.04347e-07
4.0434e-07
4.04573e-07
4.05132e-07
4.06037e-07
4.07488e-07
4.09341e-07
4.11022e-07
4.12531e-07
4.1377e-07
4.15546e-07
4.17345e-07
4.18421e-07
4.20933e-07
4.24252e-07
4.25765e-07
4.28589e-07
4.33122e-07
4.34827e-07
4.35703e-07
4.38726e-07
4.40105e-07
4.39537e-07
4.40015e-07
4.41284e-07
4.41878e-07
4.44058e-07
4.45228e-07
4.4302e-07
4.42188e-07
4.4555e-07
4.48664e-07
4.46983e-07
4.46123e-07
4.48875e-07
4.50971e-07
4.523e-07
4.49989e-07
4.47636e-07
4.48245e-07
4.51065e-07
4.53806e-07
4.55253e-07
4.55259e-07
4.56018e-07
4.57633e-07
4.58533e-07
4.58119e-07
4.58006e-07
4.59157e-07
4.62571e-07
4.62322e-07
4.62839e-07
4.60836e-07
4.62959e-07
4.70307e-07
4.72439e-07
4.74701e-07
4.73894e-07
4.77925e-07
4.81848e-07
4.9079e-07
4.87558e-07
4.7839e-07
4.77294e-07
4.79822e-07
4.7928e-07
4.8044e-07
4.83705e-07
4.87406e-07
4.8848e-07
4.88683e-07
4.89917e-07
4.90622e-07
4.94566e-07
5.02623e-07
5.01114e-07
4.94238e-07
4.9033e-07
4.97446e-07
5.01002e-07
4.96996e-07
4.93137e-07
4.9382e-07
4.96681e-07
4.98718e-07
4.99759e-07
5.00589e-07
5.01796e-07
5.02704e-07
5.03734e-07
5.04729e-07
5.0508e-07
5.05089e-07
5.05346e-07
5.05889e-07
5.06719e-07
5.07668e-07
5.08636e-07
5.09401e-07
5.10165e-07
5.10583e-07
5.11052e-07
5.1154e-07
5.12129e-07
5.1272e-07
5.13318e-07
5.13467e-07
5.1405e-07
5.14191e-07
5.15777e-07
5.15653e-07
5.17683e-07
5.16353e-07
5.18238e-07
5.16101e-07
5.19038e-07
5.15157e-07
5.19306e-07
5.18986e-07
5.07176e-07
5.36245e-07
4.86775e-07
5.43337e-07
4.97996e-07
5.10474e-07
5.42133e-07
4.67285e-07
5.76999e-07
4.40755e-07
5.93194e-07
4.2878e-07
5.92063e-07
4.29787e-07
5.76823e-07
4.40179e-07
5.41537e-07
4.64434e-07
4.8794e-07
5.02151e-07
4.47147e-07
5.36182e-07
4.20012e-07
5.48927e-07
3.69255e-07
6.30241e-07
2.20003e-07
1.21406e-06
5.10861e-07
2.85344e-06
9.41433e-06
9.62244e-06
5.05576e-06
1.70842e-06
6.26499e-07
4.31796e-07
4.05766e-07
4.00364e-07
3.9852e-07
3.97958e-07
3.97841e-07
3.97824e-07
3.97813e-07
3.97807e-07
3.97805e-07
3.97803e-07
3.97801e-07
3.97801e-07
3.978e-07
3.978e-07
3.978e-07
3.978e-07
3.978e-07
3.978e-07
3.978e-07
3.978e-07
3.978e-07
3.978e-07
3.978e-07
3.978e-07
3.978e-07
3.978e-07
3.978e-07
3.97801e-07
3.97802e-07
3.97804e-07
3.97806e-07
3.97811e-07
3.97818e-07
3.97829e-07
3.9785e-07
3.97974e-07
3.9839e-07
3.99356e-07
4.00656e-07
4.02625e-07
4.18504e-07
4.67375e-07
5.04609e-07
4.98083e-07
4.52757e-07
3.71125e-07
4.39789e-07
4.23615e-07
4.35937e-07
4.40051e-07
4.36215e-07
4.45025e-07
4.34254e-07
4.49944e-07
4.31038e-07
4.54184e-07
4.284e-07
4.57468e-07
4.26401e-07
4.60422e-07
4.23556e-07
4.64617e-07
4.19931e-07
4.67518e-07
4.21511e-07
4.61197e-07
4.34015e-07
4.46356e-07
4.49492e-07
4.34017e-07
4.61254e-07
4.2523e-07
4.65756e-07
4.29556e-07
4.55676e-07
4.42581e-07
4.46854e-07
4.48029e-07
4.46182e-07
4.48192e-07
4.47483e-07
4.48477e-07
4.48357e-07
4.48827e-07
4.49012e-07
4.49273e-07
4.4938e-07
4.49802e-07
4.4986e-07
4.50203e-07
4.50507e-07
4.50634e-07
4.50984e-07
4.51107e-07
4.51379e-07
4.5159e-07
4.51713e-07
4.52087e-07
4.52171e-07
4.52385e-07
4.52635e-07
4.52909e-07
4.53024e-07
4.53218e-07
4.53375e-07
4.53471e-07
4.53743e-07
4.5389e-07
4.53996e-07
4.54107e-07
4.53981e-07
4.54061e-07
4.53929e-07
4.538e-07
4.53641e-07
4.53362e-07
4.53252e-07
4.52958e-07
4.5262e-07
4.52288e-07
4.51913e-07
4.51563e-07
4.50661e-07
4.50014e-07
4.49635e-07
4.49554e-07
4.48814e-07
4.47504e-07
4.46839e-07
4.45584e-07
4.44679e-07
4.4354e-07
4.42282e-07
4.40953e-07
4.39862e-07
4.38393e-07
4.36651e-07
4.35236e-07
4.34094e-07
4.33086e-07
4.31296e-07
4.30095e-07
4.28903e-07
4.28102e-07
4.26931e-07
4.2701e-07
4.25909e-07
4.25385e-07
4.24145e-07
4.24011e-07
4.23749e-07
4.22846e-07
4.22367e-07
4.21317e-07
4.21113e-07
4.20367e-07
4.19903e-07
4.19025e-07
4.1855e-07
4.17937e-07
4.17434e-07
4.16727e-07
4.16157e-07
4.15588e-07
4.15036e-07
4.14467e-07
4.13878e-07
4.13369e-07
4.12879e-07
4.12418e-07
4.11881e-07
4.11352e-07
4.10862e-07
4.1041e-07
4.09901e-07
4.09433e-07
4.09018e-07
4.08494e-07
4.07826e-07
4.06901e-07
4.0561e-07
4.03785e-07
4.01575e-07
3.99094e-07
3.96589e-07
3.94255e-07
3.92407e-07
3.91238e-07
3.90897e-07
3.90981e-07
3.91276e-07
3.91837e-07
3.91792e-07
3.91812e-07
3.91724e-07
3.91343e-07
3.916e-07
3.9266e-07
3.94345e-07
3.97219e-07
3.97602e-07
3.94471e-07
4.03019e-07
4.10903e-07
4.15423e-07
4.11245e-07
4.05725e-07
4.00424e-07
3.9786e-07
3.96895e-07
3.97052e-07
3.96884e-07
3.96971e-07
3.96948e-07
3.9669e-07
3.96291e-07
3.96052e-07
3.95955e-07
3.9603e-07
3.96167e-07
3.96569e-07
3.97463e-07
3.99173e-07
4.01274e-07
4.03918e-07
4.07261e-07
4.09897e-07
4.11891e-07
4.14096e-07
4.15764e-07
4.16585e-07
4.17375e-07
4.18033e-07
4.18204e-07
4.18376e-07
4.19008e-07
4.19573e-07
4.20027e-07
4.2098e-07
4.21463e-07
4.21637e-07
4.22253e-07
4.2322e-07
4.23845e-07
4.24154e-07
4.25132e-07
4.26027e-07
4.26831e-07
4.27544e-07
4.28008e-07
4.28298e-07
4.29013e-07
4.29787e-07
4.30608e-07
4.31095e-07
4.32029e-07
4.32994e-07
4.34186e-07
4.34874e-07
4.3581e-07
4.3605e-07
4.37241e-07
4.37867e-07
4.38328e-07
4.3913e-07
4.39603e-07
4.40547e-07
4.41821e-07
4.43085e-07
4.43712e-07
4.45183e-07
4.472e-07
4.49219e-07
4.51598e-07
4.52382e-07
4.52344e-07
4.52717e-07
4.52886e-07
4.53059e-07
4.54008e-07
4.55291e-07
4.56272e-07
4.56861e-07
4.57895e-07
4.58653e-07
4.5978e-07
4.60719e-07
4.62497e-07
4.63645e-07
4.63765e-07
4.63788e-07
4.65036e-07
4.66329e-07
4.66436e-07
4.66172e-07
4.66411e-07
4.67154e-07
4.67896e-07
4.68515e-07
4.6913e-07
4.69754e-07
4.70206e-07
4.70675e-07
4.7117e-07
4.71621e-07
4.7211e-07
4.72607e-07
4.73131e-07
4.73629e-07
4.74106e-07
4.74546e-07
4.74959e-07
4.75363e-07
4.75744e-07
4.7614e-07
4.76478e-07
4.76879e-07
4.77237e-07
4.77554e-07
4.77825e-07
4.78128e-07
4.78295e-07
4.78642e-07
4.78766e-07
4.79004e-07
4.78887e-07
4.79304e-07
4.78534e-07
4.79763e-07
4.78712e-07
4.77675e-07
4.83674e-07
4.69497e-07
4.90907e-07
4.68264e-07
4.78651e-07
4.94485e-07
4.43573e-07
5.26804e-07
4.22059e-07
5.33631e-07
4.26901e-07
5.18443e-07
4.49273e-07
4.89662e-07
4.80046e-07
4.57264e-07
5.11198e-07
4.26302e-07
5.36457e-07
4.03364e-07
5.51139e-07
3.89918e-07
5.56365e-07
3.7684e-07
5.6275e-07
3.57097e-07
5.77954e-07
3.28064e-07
6.02842e-07
4.96341e-07
2.90942e-07
4.78348e-06
7.24043e-06
4.83848e-06
1.9718e-06
7.43226e-07
4.55601e-07
4.09237e-07
4.00945e-07
3.98655e-07
3.97983e-07
3.97843e-07
3.97821e-07
3.97813e-07
3.97807e-07
3.97805e-07
3.97803e-07
3.97801e-07
3.978e-07
3.978e-07
3.978e-07
3.978e-07
3.978e-07
3.978e-07
3.978e-07
3.978e-07
3.978e-07
3.978e-07
3.978e-07
3.978e-07
3.978e-07
3.978e-07
3.978e-07
3.97801e-07
3.97801e-07
3.97802e-07
3.97804e-07
3.97806e-07
3.97811e-07
3.97818e-07
3.97828e-07
3.97846e-07
3.97949e-07
3.98343e-07
3.99573e-07
4.02471e-07
4.02103e-07
3.76462e-07
3.28263e-07
3.34424e-07
3.82565e-07
4.28225e-07
4.5378e-07
4.1099e-07
4.45051e-07
4.21995e-07
4.39943e-07
4.29063e-07
4.37069e-07
4.33864e-07
4.34583e-07
4.37853e-07
4.32065e-07
4.41389e-07
4.29418e-07
4.44941e-07
4.26389e-07
4.48997e-07
4.22677e-07
4.53563e-07
4.19192e-07
4.56356e-07
4.19339e-07
4.5433e-07
4.24476e-07
4.48817e-07
4.31627e-07
4.40984e-07
4.41978e-07
4.31809e-07
4.48034e-07
4.32074e-07
4.44583e-07
4.37737e-07
4.40971e-07
4.40496e-07
4.40595e-07
4.41166e-07
4.41324e-07
4.41603e-07
4.4182e-07
4.42008e-07
4.42251e-07
4.42349e-07
4.42689e-07
4.42714e-07
4.43025e-07
4.43246e-07
4.43323e-07
4.43597e-07
4.43596e-07
4.43752e-07
4.4392e-07
4.43917e-07
4.44266e-07
4.44306e-07
4.44434e-07
4.4454e-07
4.44709e-07
4.44638e-07
4.44745e-07
4.44758e-07
4.44739e-07
4.44935e-07
4.44948e-07
4.44856e-07
4.44833e-07
4.44602e-07
4.44587e-07
4.4433e-07
4.44061e-07
4.43796e-07
4.4341e-07
4.43162e-07
4.42689e-07
4.42216e-07
4.4177e-07
4.41247e-07
4.40695e-07
4.39779e-07
4.39226e-07
4.38589e-07
4.38076e-07
4.36914e-07
4.35509e-07
4.34846e-07
4.33598e-07
4.32813e-07
4.31667e-07
4.30384e-07
4.29062e-07
4.27913e-07
4.26653e-07
4.25137e-07
4.2368e-07
4.22557e-07
4.22049e-07
4.2101e-07
4.20107e-07
4.19056e-07
4.18977e-07
4.17467e-07
4.17936e-07
4.1699e-07
4.17148e-07
4.16095e-07
4.15654e-07
4.15681e-07
4.15053e-07
4.15026e-07
4.13952e-07
4.13824e-07
4.13153e-07
4.12973e-07
4.12293e-07
4.11879e-07
4.11321e-07
4.10947e-07
4.10439e-07
4.0994e-07
4.09482e-07
4.08944e-07
4.0848e-07
4.07997e-07
4.07497e-07
4.07067e-07
4.06618e-07
4.06179e-07
4.05779e-07
4.05397e-07
4.05071e-07
4.04837e-07
4.047e-07
4.04675e-07
4.04636e-07
4.04413e-07
4.0396e-07
4.03231e-07
4.02282e-07
4.01374e-07
4.00717e-07
4.00529e-07
4.0091e-07
4.02049e-07
4.03169e-07
4.03772e-07
4.03721e-07
4.03198e-07
4.02942e-07
4.0276e-07
4.02623e-07
4.03015e-07
4.03291e-07
4.03157e-07
4.02179e-07
4.00511e-07
3.98963e-07
3.97637e-07
4.02811e-07
3.91647e-07
3.84347e-07
3.82795e-07
3.8779e-07
3.93138e-07
3.96595e-07
3.98327e-07
3.98822e-07
3.99483e-07
3.99719e-07
4.00193e-07
4.00821e-07
4.01483e-07
4.0218e-07
4.02486e-07
4.02858e-07
4.0355e-07
4.04368e-07
4.04706e-07
4.04673e-07
4.04432e-07
4.04345e-07
4.04854e-07
4.05779e-07
4.06775e-07
4.07856e-07
4.08952e-07
4.09256e-07
4.09359e-07
4.09607e-07
4.09683e-07
4.09521e-07
4.09831e-07
4.10275e-07
4.10679e-07
4.11352e-07
4.12022e-07
4.12345e-07
4.1276e-07
4.13431e-07
4.14044e-07
4.14329e-07
4.14807e-07
4.15583e-07
4.16185e-07
4.16781e-07
4.16995e-07
4.17741e-07
4.18039e-07
4.18754e-07
4.19137e-07
4.19522e-07
4.19854e-07
4.2082e-07
4.2144e-07
4.22636e-07
4.22956e-07
4.23666e-07
4.2403e-07
4.25038e-07
4.2542e-07
4.25513e-07
4.26411e-07
4.27125e-07
4.27793e-07
4.28207e-07
4.29177e-07
4.29686e-07
4.31394e-07
4.33114e-07
4.34744e-07
4.3621e-07