/*--------------------------------*- C++ -*----------------------------------*\
| =========                 |                                                 |
| \\      /  F ield         | OpenFOAM: The Open Source CFD Toolbox           |
|  \\    /   O peration     | Version:  v2006                                 |
|   \\  /    A nd           | Website:  www.openfoam.com                      |
|    \\/     M anipulation  |                                                 |
\*---------------------------------------------------------------------------*/
FoamFile
{
    version     2.0;
    format      ascii;
    class       volScalarField;
    location    "185";
    object      nuTilda;
}
// * * * * * * * * * * * * * * * * * * * * * * * * * * * * * * * * * * * * * //

dimensions      [0 2 -1 0 0 0 0];


internalField   nonuniform List<scalar> 
93840
(
3.97802e-07
3.978e-07
3.978e-07
3.978e-07
3.978e-07
3.978e-07
3.978e-07
3.97801e-07
3.97801e-07
3.97803e-07
3.97805e-07
3.97807e-07
3.97812e-07
3.97822e-07
3.97836e-07
3.97884e-07
3.98152e-07
3.99012e-07
4.00912e-07
4.037e-07
4.16554e-07
5.0712e-07
6.841e-07
2.10592e-07
5.34244e-09
3.131e-06
6.17727e-06
8.5306e-06
9.5845e-06
1.07305e-05
1.11619e-05
1.08896e-05
1.18441e-05
1.09432e-05
1.14477e-05
1.09752e-05
1.12512e-05
1.09059e-05
1.10624e-05
1.0836e-05
1.08946e-05
1.07591e-05
1.07414e-05
1.06582e-05
1.06019e-05
1.05336e-05
1.04849e-05
1.04025e-05
1.03788e-05
1.02835e-05
1.02527e-05
1.01826e-05
1.01237e-05
1.00651e-05
1.0086e-05
1.00182e-05
1.00041e-05
9.91064e-06
9.87649e-06
9.82826e-06
9.81618e-06
9.75528e-06
9.75575e-06
9.74244e-06
9.73629e-06
9.72627e-06
9.74257e-06
9.75613e-06
9.76214e-06
9.78045e-06
9.80743e-06
9.83175e-06
9.86835e-06
9.91476e-06
9.95868e-06
1.00093e-05
1.00679e-05
1.01307e-05
1.02053e-05
1.02814e-05
1.03568e-05
1.04383e-05
1.05305e-05
1.06374e-05
1.07505e-05
1.08632e-05
1.09831e-05
1.11053e-05
1.12311e-05
1.13707e-05
1.15305e-05
1.17043e-05
1.1883e-05
1.20696e-05
1.22674e-05
1.24753e-05
1.26928e-05
1.29103e-05
1.31466e-05
1.33962e-05
1.36645e-05
1.39061e-05
1.41666e-05
1.45667e-05
1.49813e-05
1.51181e-05
1.53103e-05
1.56147e-05
1.60236e-05
1.63598e-05
1.67093e-05
1.7043e-05
1.73835e-05
1.77676e-05
1.81323e-05
1.84838e-05
1.88136e-05
1.91861e-05
1.94995e-05
1.98063e-05
2.00292e-05
2.03482e-05
2.04667e-05
2.06985e-05
2.06094e-05
2.06937e-05
2.0661e-05
2.05186e-05
2.05935e-05
2.04505e-05
2.03671e-05
2.02578e-05
2.01531e-05
2.00912e-05
1.99918e-05
1.98637e-05
1.97476e-05
1.96657e-05
1.95745e-05
1.95214e-05
1.94512e-05
1.93625e-05
1.92522e-05
1.91821e-05
1.91056e-05
1.90364e-05
1.89683e-05
1.88855e-05
1.87865e-05
1.86771e-05
1.85794e-05
1.84751e-05
1.83567e-05
1.82293e-05
1.80938e-05
1.79502e-05
1.77924e-05
1.76179e-05
1.74282e-05
1.72396e-05
1.70624e-05
1.6863e-05
1.66266e-05
1.6363e-05
1.60658e-05
1.57297e-05
1.53571e-05
1.49394e-05
1.44187e-05
1.36719e-05
1.25567e-05
1.09251e-05
8.75761e-06
6.43338e-06
4.56728e-06
3.36338e-06
2.38795e-06
1.38144e-06
1.07046e-06
6.93717e-07
4.79792e-07
4.60626e-07
6.82579e-07
2.1048e-07
5.22018e-07
1.89462e-06
8.95008e-07
3.75796e-07
1.66395e-06
2.12339e-06
3.02266e-06
5.15149e-06
6.71031e-06
8.53183e-06
1.13042e-05
1.51767e-05
2.0124e-05
2.44366e-05
2.70024e-05
2.82403e-05
2.87323e-05
2.89164e-05
2.89265e-05
2.87653e-05
2.86369e-05
2.85476e-05
2.83915e-05
2.8193e-05
2.80304e-05
2.78782e-05
2.77387e-05
2.76069e-05
2.74984e-05
2.74139e-05
2.73202e-05
2.71851e-05
2.70398e-05
2.69279e-05
2.68307e-05
2.67375e-05
2.67545e-05
2.67697e-05
2.66806e-05
2.65708e-05
2.64483e-05
2.63049e-05
2.61761e-05
2.60457e-05
2.59042e-05
2.57507e-05
2.56355e-05
2.57079e-05
2.57066e-05
2.57282e-05
2.5718e-05
2.56364e-05
2.55252e-05
2.54322e-05
2.53218e-05
2.52624e-05
2.51798e-05
2.51536e-05
2.50818e-05
2.50871e-05
2.50164e-05
2.49806e-05
2.48385e-05
2.49259e-05
2.4632e-05
2.44587e-05
2.4507e-05
2.41518e-05
2.3796e-05
2.31993e-05
2.18496e-05
1.89206e-05
1.63816e-05
1.54271e-05
1.52015e-05
1.51535e-05
1.51192e-05
1.50463e-05
1.49484e-05
1.48009e-05
1.46227e-05
1.44049e-05
1.41943e-05
1.39523e-05
1.35175e-05
1.31194e-05
1.29352e-05
1.28133e-05
1.2499e-05
1.2057e-05
1.18134e-05
1.16503e-05
1.14321e-05
1.11344e-05
1.08054e-05
1.05076e-05
1.0214e-05
9.91414e-06
9.60673e-06
9.30082e-06
8.99137e-06
8.67518e-06
8.3687e-06
8.07127e-06
7.77444e-06
7.47488e-06
7.17566e-06
6.87616e-06
6.57573e-06
6.2759e-06
5.97606e-06
5.67716e-06
5.38e-06
5.08155e-06
4.77817e-06
4.47431e-06
4.18107e-06
3.91378e-06
3.67985e-06
3.48423e-06
3.31422e-06
3.16669e-06
3.03694e-06
2.9312e-06
2.84334e-06
2.77588e-06
2.7126e-06
2.65777e-06
2.60753e-06
2.56456e-06
2.52516e-06
2.49119e-06
2.4562e-06
2.42608e-06
2.39456e-06
2.36959e-06
2.34183e-06
2.31967e-06
2.2932e-06
2.27478e-06
2.25138e-06
2.23856e-06
2.22835e-06
2.23184e-06
2.24528e-06
2.27517e-06
2.32208e-06
2.37787e-06
2.80383e-06
3.24987e-06
3.9661e-06
2.6248e-06
5.8405e-06
8.40158e-06
9.21523e-06
1.0027e-05
1.01631e-05
9.58101e-06
8.32821e-06
2.68019e-06
4.72529e-07
2.32225e-07
4.51157e-07
4.35927e-07
4.10221e-07
4.02002e-07
3.99216e-07
3.98196e-07
3.97888e-07
3.97837e-07
3.97821e-07
3.97813e-07
3.97807e-07
3.97805e-07
3.97803e-07
3.97801e-07
3.97801e-07
3.978e-07
3.97801e-07
3.978e-07
3.978e-07
3.978e-07
3.978e-07
3.97802e-07
3.97801e-07
3.978e-07
3.978e-07
3.978e-07
3.978e-07
3.978e-07
3.978e-07
3.97801e-07
3.97801e-07
3.97803e-07
3.97804e-07
3.97807e-07
3.97812e-07
3.97818e-07
3.97832e-07
3.97871e-07
3.98106e-07
3.98892e-07
4.00893e-07
4.02992e-07
3.92145e-07
3.47031e-07
3.86167e-07
7.47817e-07
6.22997e-07
3.38171e-08
1.03527e-06
4.23441e-06
4.76137e-06
6.3872e-06
7.05443e-06
7.40329e-06
7.6404e-06
7.3486e-06
7.63365e-06
7.31143e-06
7.65269e-06
7.27633e-06
7.6598e-06
7.29486e-06
7.6296e-06
7.37363e-06
7.52398e-06
7.45221e-06
7.46217e-06
7.45376e-06
7.55005e-06
7.29167e-06
7.68579e-06
7.30493e-06
7.54673e-06
7.44583e-06
7.52033e-06
7.39336e-06
7.6701e-06
7.30366e-06
7.65069e-06
7.35513e-06
7.61912e-06
7.43771e-06
7.65702e-06
7.48319e-06
7.67385e-06
7.58613e-06
7.67221e-06
7.66316e-06
7.70567e-06
7.71666e-06
7.74415e-06
7.77416e-06
7.80427e-06
7.83681e-06
7.87678e-06
7.90742e-06
7.94684e-06
7.98468e-06
8.02554e-06
8.06821e-06
8.10615e-06
8.14911e-06
8.19632e-06
8.25111e-06
8.3102e-06
8.36776e-06
8.42532e-06
8.48759e-06
8.55413e-06
8.62682e-06
8.70991e-06
8.8033e-06
8.90073e-06
8.9978e-06
9.10172e-06
9.20722e-06
9.32597e-06
9.4405e-06
9.56158e-06
9.69301e-06
9.83124e-06
9.9763e-06
1.01143e-05
1.02848e-05
1.04993e-05
1.06775e-05
1.07339e-05
1.08229e-05
1.10522e-05
1.12931e-05
1.14679e-05
1.16212e-05
1.18191e-05
1.20013e-05
1.22016e-05
1.23988e-05
1.25601e-05
1.27218e-05
1.28403e-05
1.2932e-05
1.2929e-05
1.2952e-05
1.29137e-05
1.29049e-05
1.28226e-05
1.27559e-05
1.25906e-05
1.25419e-05
1.22825e-05
1.22668e-05
1.20374e-05
1.18551e-05
1.16935e-05
1.14343e-05
1.1375e-05
1.12112e-05
1.11408e-05
1.10235e-05
1.09625e-05
1.08374e-05
1.07342e-05
1.05865e-05
1.04536e-05
1.02992e-05
1.01914e-05
1.00059e-05
9.88424e-06
9.72745e-06
9.57663e-06
9.42791e-06
9.2813e-06
9.16793e-06
9.0283e-06
8.91338e-06
8.80592e-06
8.68729e-06
8.57338e-06
8.45739e-06
8.33081e-06
8.19087e-06
8.04712e-06
7.893e-06
7.69781e-06
7.42988e-06
7.05931e-06
6.60373e-06
6.01467e-06
5.36452e-06
4.65873e-06
3.8089e-06
2.86954e-06
2.0114e-06
1.29966e-06
7.65128e-07
4.16195e-07
2.43424e-07
2.02114e-07
2.05406e-07
2.11265e-07
2.49848e-07
2.8704e-07
3.2418e-07
3.74129e-07
3.75531e-07
3.34505e-07
4.66642e-07
3.70418e-07
2.47583e-07
3.65397e-07
4.30285e-07
4.35198e-07
4.10852e-07
3.46544e-07
4.07031e-07
4.52189e-07
5.09037e-07
6.47964e-07
9.37894e-07
1.56168e-06
2.6023e-06
3.84173e-06
5.36524e-06
7.00998e-06
8.53655e-06
9.74411e-06
1.06754e-05
1.16253e-05
1.24642e-05
1.29619e-05
1.32156e-05
1.34648e-05
1.36254e-05
1.36793e-05
1.37402e-05
1.38151e-05
1.38778e-05
1.39436e-05
1.40422e-05
1.41271e-05
1.42044e-05
1.42856e-05
1.43556e-05
1.44258e-05
1.45835e-05
1.47173e-05
1.47758e-05
1.48231e-05
1.4882e-05
1.49147e-05
1.49081e-05
1.48805e-05
1.49075e-05
1.4903e-05
1.49911e-05
1.5028e-05
1.50767e-05
1.51541e-05
1.52271e-05
1.52329e-05
1.52577e-05
1.52172e-05
1.52123e-05
1.51876e-05
1.52359e-05
1.51938e-05
1.52376e-05
1.52013e-05
1.53287e-05
1.52474e-05
1.53405e-05
1.53869e-05
1.52743e-05
1.53472e-05
1.51427e-05
1.50343e-05
1.48733e-05
1.48904e-05
1.48561e-05
1.45148e-05
1.42238e-05
1.4152e-05
1.40538e-05
1.39452e-05
1.38193e-05
1.3728e-05
1.36167e-05
1.34689e-05
1.32958e-05
1.30773e-05
1.30017e-05
1.29099e-05
1.26502e-05
1.2311e-05
1.21248e-05
1.21206e-05
1.20069e-05
1.17648e-05
1.1577e-05
1.1497e-05
1.14106e-05
1.13127e-05
1.1186e-05
1.10668e-05
1.0953e-05
1.08463e-05
1.07346e-05
1.06167e-05
1.05083e-05
1.03967e-05
1.02855e-05
1.01723e-05
1.00644e-05
9.9601e-06
9.85924e-06
9.75838e-06
9.66096e-06
9.56217e-06
9.46689e-06
9.36887e-06
9.27481e-06
9.18703e-06
9.10264e-06
9.01844e-06
8.94074e-06
8.85472e-06
8.78766e-06
8.69967e-06
8.65612e-06
8.55124e-06
8.51769e-06
8.40368e-06
8.35962e-06
8.26871e-06
8.20267e-06
8.12255e-06
8.05628e-06
7.96552e-06
7.90348e-06
7.80577e-06
7.75482e-06
7.64967e-06
7.60727e-06
7.50669e-06
7.464e-06
7.36118e-06
7.32669e-06
7.2414e-06
7.22517e-06
7.17535e-06
7.17667e-06
7.13002e-06
7.04294e-06
6.89759e-06
6.66639e-06
6.29824e-06
5.70722e-06
5.41782e-06
5.62093e-06
5.827e-06
7.34839e-06
8.21611e-06
9.9385e-06
1.10047e-05
1.17442e-05
1.30322e-05
9.405e-06
3.16313e-06
4.25752e-07
3.10027e-07
4.0316e-07
4.09557e-07
4.0294e-07
3.99529e-07
3.98268e-07
3.979e-07
3.97836e-07
3.97818e-07
3.97813e-07
3.97807e-07
3.97805e-07
3.97803e-07
3.97802e-07
3.97801e-07
3.978e-07
3.978e-07
3.97801e-07
3.978e-07
3.978e-07
3.978e-07
3.97801e-07
3.97802e-07
3.978e-07
3.978e-07
3.978e-07
3.978e-07
3.978e-07
3.978e-07
3.97801e-07
3.97801e-07
3.97803e-07
3.97804e-07
3.97807e-07
3.97812e-07
3.97819e-07
3.97835e-07
3.97859e-07
3.98052e-07
3.98722e-07
4.00752e-07
4.07119e-07
4.25555e-07
4.4961e-07
3.96188e-07
2.6547e-07
3.87734e-07
3.18609e-07
9.38507e-08
6.92435e-08
7.0731e-07
4.82821e-07
1.66555e-06
1.51826e-06
2.12616e-06
1.68685e-06
2.16977e-06
1.81613e-06
2.04607e-06
2.00285e-06
1.9725e-06
2.10803e-06
1.96518e-06
2.18954e-06
1.93392e-06
2.30642e-06
1.87053e-06
2.38619e-06
1.95217e-06
2.29031e-06
2.15247e-06
2.2107e-06
2.22688e-06
2.22011e-06
2.32396e-06
2.17627e-06
2.48458e-06
2.10145e-06
2.52865e-06
2.18274e-06
2.53764e-06
2.31401e-06
2.6034e-06
2.38391e-06
2.64827e-06
2.51157e-06
2.64185e-06
2.61283e-06
2.67036e-06
2.67544e-06
2.70729e-06
2.73516e-06
2.76387e-06
2.79146e-06
2.82344e-06
2.84577e-06
2.87955e-06
2.90266e-06
2.93315e-06
2.9581e-06
2.97409e-06
3.00645e-06
3.04097e-06
3.07976e-06
3.11745e-06
3.14416e-06
3.17248e-06
3.21013e-06
3.24606e-06
3.29912e-06
3.36344e-06
3.42677e-06
3.48171e-06
3.53051e-06
3.59564e-06
3.64891e-06
3.7219e-06
3.77711e-06
3.84985e-06
3.92663e-06
4.01711e-06
4.11203e-06
4.21128e-06
4.33331e-06
4.4515e-06
4.44841e-06
4.39264e-06
4.48947e-06
4.77981e-06
4.89271e-06
5.01818e-06
5.03584e-06
5.18608e-06
5.26843e-06
5.41928e-06
5.53728e-06
5.5988e-06
5.67132e-06
5.70221e-06
5.76603e-06
5.74111e-06
5.70922e-06
5.52785e-06
5.43844e-06
5.27821e-06
5.25107e-06
5.01151e-06
5.11795e-06
4.71808e-06
4.7744e-06
4.57985e-06
4.54864e-06
4.59012e-06
4.31035e-06
4.36792e-06
4.20601e-06
4.26275e-06
4.15709e-06
4.15142e-06
4.05529e-06
4.05748e-06
3.99192e-06
3.93299e-06
3.86482e-06
3.84304e-06
3.79726e-06
3.74524e-06
3.67082e-06
3.59289e-06
3.53353e-06
3.46195e-06
3.3927e-06
3.29643e-06
3.20548e-06
3.09444e-06
2.97054e-06
2.82338e-06
2.65979e-06
2.4893e-06
2.28685e-06
2.0822e-06
1.85959e-06
1.61767e-06
1.36602e-06
1.10888e-06
8.81709e-07
6.78206e-07
5.45425e-07
4.68927e-07
4.24668e-07
4.00575e-07
4.03472e-07
4.23204e-07
4.38366e-07
4.49524e-07
4.54378e-07
4.55473e-07
4.53766e-07
4.52951e-07
4.49558e-07
4.38496e-07
4.27413e-07
4.16635e-07
4.17579e-07
4.31702e-07
3.83572e-07
4.22781e-07
4.34233e-07
3.99279e-07
3.88927e-07
3.90107e-07
4.05717e-07
4.16358e-07
4.27312e-07
4.2852e-07
4.31819e-07
4.2886e-07
4.354e-07
4.48199e-07
4.60076e-07
4.5764e-07
5.36759e-07
6.91257e-07
8.48167e-07
9.52456e-07
1.14203e-06
1.56702e-06
1.98478e-06
2.27043e-06
2.68799e-06
3.21621e-06
3.58829e-06
3.85595e-06
4.17716e-06
4.40365e-06
4.54192e-06
4.69608e-06
4.83851e-06
4.95284e-06
5.01827e-06
5.06513e-06
5.09638e-06
5.13526e-06
5.22054e-06
5.24353e-06
5.22649e-06
5.27197e-06
5.38299e-06
5.38117e-06
5.33745e-06
5.28731e-06
5.35306e-06
5.34653e-06
5.34508e-06
5.28646e-06
5.26714e-06
5.3371e-06
5.45354e-06
5.49385e-06
5.55342e-06
5.47384e-06
5.4794e-06
5.45078e-06
5.49873e-06
5.39024e-06
5.44214e-06
5.39766e-06
5.60909e-06
5.53046e-06
5.45114e-06
5.67633e-06
5.633e-06
5.86402e-06
5.78689e-06
5.85978e-06
5.8458e-06
6.14695e-06
6.33266e-06
5.9487e-06
5.6491e-06
5.74914e-06
5.76473e-06
5.72525e-06
5.70708e-06
5.78472e-06
5.84845e-06
5.77761e-06
5.76218e-06
5.61199e-06
5.68233e-06
5.78993e-06
5.78715e-06
5.46437e-06
5.1564e-06
5.2536e-06
5.33429e-06
5.22909e-06
5.02348e-06
4.95033e-06
4.97351e-06
4.99476e-06
4.96153e-06
4.93068e-06
4.90492e-06
4.87871e-06
4.84442e-06
4.80388e-06
4.76353e-06
4.70614e-06
4.6523e-06
4.59831e-06
4.55294e-06
4.51418e-06
4.47956e-06
4.44658e-06
4.41855e-06
4.38318e-06
4.35059e-06
4.31622e-06
4.28361e-06
4.25823e-06
4.23791e-06
4.2069e-06
4.1871e-06
4.14515e-06
4.14865e-06
4.09757e-06
4.13796e-06
4.04832e-06
4.09371e-06
4.00188e-06
4.01771e-06
3.96722e-06
3.96504e-06
3.89883e-06
3.92627e-06
3.81893e-06
3.85021e-06
3.76725e-06
3.78083e-06
3.74734e-06
3.72283e-06
3.72255e-06
3.67306e-06
3.68091e-06
3.61477e-06
3.62384e-06
3.5468e-06
3.54031e-06
3.42571e-06
3.34724e-06
3.19656e-06
2.90609e-06
2.70276e-06
2.07516e-06
1.75578e-06
1.23135e-06
1.42963e-06
1.27542e-06
2.5559e-06
3.076e-06
5.7882e-06
7.08473e-06
9.26357e-06
1.34077e-05
1.35808e-05
7.5091e-06
2.12615e-06
5.51395e-07
4.02388e-07
4.06632e-07
4.03253e-07
3.99813e-07
3.98355e-07
3.97921e-07
3.97837e-07
3.9782e-07
3.97813e-07
3.97807e-07
3.97804e-07
3.97803e-07
3.97801e-07
3.97801e-07
3.978e-07
3.978e-07
3.978e-07
3.978e-07
3.978e-07
3.978e-07
3.97801e-07
3.978e-07
3.978e-07
3.978e-07
3.978e-07
3.978e-07
3.978e-07
3.978e-07
3.97801e-07
3.97801e-07
3.97803e-07
3.97804e-07
3.97807e-07
3.97812e-07
3.9782e-07
3.97835e-07
3.97857e-07
3.98023e-07
3.98542e-07
3.99597e-07
4.00189e-07
3.96902e-07
3.96318e-07
4.36102e-07
4.94731e-07
5.03284e-07
6.20088e-07
4.80984e-07
3.47237e-07
3.34157e-07
2.29423e-07
2.55788e-07
3.94692e-07
3.21226e-07
4.74336e-07
3.56245e-07
4.66974e-07
4.09799e-07
4.46661e-07
4.37569e-07
4.47129e-07
4.52692e-07
4.44121e-07
4.74755e-07
4.26153e-07
5.11702e-07
4.21577e-07
5.04551e-07
4.62059e-07
4.86969e-07
4.88005e-07
4.81018e-07
5.16403e-07
4.81553e-07
5.1928e-07
5.19047e-07
4.91189e-07
5.37129e-07
4.9861e-07
5.39747e-07
5.28122e-07
5.51834e-07
5.44924e-07
5.69609e-07
5.64309e-07
5.78387e-07
5.81196e-07
5.90692e-07
5.92011e-07
5.98872e-07
6.05468e-07
6.10797e-07
6.16641e-07
6.23261e-07
6.26544e-07
6.3271e-07
6.38009e-07
6.434e-07
6.48593e-07
6.51243e-07
6.55549e-07
6.62382e-07
6.70365e-07
6.78235e-07
6.82411e-07
6.85092e-07
6.90735e-07
6.95675e-07
7.04791e-07
7.18198e-07
7.31918e-07
7.42344e-07
7.47709e-07
7.58055e-07
7.66142e-07
7.77906e-07
7.85558e-07
7.95287e-07
8.08079e-07
8.24249e-07
8.40028e-07
8.5581e-07
8.79287e-07
9.08385e-07
9.0021e-07
8.57644e-07
8.65372e-07
9.47366e-07
9.83967e-07
1.00255e-06
9.86675e-07
1.01298e-06
1.01434e-06
1.04467e-06
1.06585e-06
1.06657e-06
1.07406e-06
1.07466e-06
1.08585e-06
1.07673e-06
1.07561e-06
1.00771e-06
9.48332e-07
8.88704e-07
8.967e-07
8.31602e-07
9.02758e-07
7.8809e-07
7.89663e-07
7.38599e-07
7.41827e-07
7.98244e-07
7.31061e-07
7.42719e-07
7.02307e-07
7.24725e-07
7.11483e-07
7.17359e-07
6.95674e-07
7.01212e-07
6.99015e-07
6.90914e-07
6.76462e-07
6.76227e-07
6.7707e-07
6.74781e-07
6.65033e-07
6.50212e-07
6.40598e-07
6.31873e-07
6.23268e-07
6.06864e-07
5.89951e-07
5.72918e-07
5.5569e-07
5.33719e-07
5.0956e-07
4.9154e-07
4.70578e-07
4.51742e-07
4.357e-07
4.21297e-07
4.10669e-07
4.02947e-07
3.98501e-07
3.95541e-07
3.92867e-07
3.89184e-07
3.85556e-07
3.83018e-07
3.80968e-07
3.78563e-07
3.76628e-07
3.74794e-07
3.7366e-07
3.74234e-07
3.74658e-07
3.76643e-07
3.76907e-07
3.78246e-07
3.82617e-07
3.88145e-07
3.88374e-07
3.8668e-07
4.07878e-07
3.9115e-07
4.02213e-07
4.14979e-07
4.14832e-07
4.08734e-07
4.0209e-07
3.97179e-07
3.956e-07
3.9566e-07
3.96932e-07
3.98356e-07
3.99719e-07
4.002e-07
3.99032e-07
3.98511e-07
4.00647e-07
4.04724e-07
4.05163e-07
4.0068e-07
4.07172e-07
4.39789e-07
4.51239e-07
4.49711e-07
5.0782e-07
5.76286e-07
6.04105e-07
6.51857e-07
7.2692e-07
7.58845e-07
7.80565e-07
8.19673e-07
8.49995e-07
8.66245e-07
8.7324e-07
8.78576e-07
8.84106e-07
9.06051e-07
9.13036e-07
8.90321e-07
8.7546e-07
9.08431e-07
9.36786e-07
9.07615e-07
8.88918e-07
8.92238e-07
9.20197e-07
9.19301e-07
8.82086e-07
8.4682e-07
8.46752e-07
8.81985e-07
9.14812e-07
9.24224e-07
9.25019e-07
8.99604e-07
9.10403e-07
9.03113e-07
9.06915e-07
8.61956e-07
8.8556e-07
8.8928e-07
9.42174e-07
9.01919e-07
8.72308e-07
9.51492e-07
9.67322e-07
1.03814e-06
1.00789e-06
1.03817e-06
1.04229e-06
1.18237e-06
1.26872e-06
1.07218e-06
9.47339e-07
9.80001e-07
9.77654e-07
9.69951e-07
9.87812e-07
1.03721e-06
1.06061e-06
1.04087e-06
1.05398e-06
1.03189e-06
1.07648e-06
1.15078e-06
1.14769e-06
1.03747e-06
9.52753e-07
1.02458e-06
1.06775e-06
1.0254e-06
9.60792e-07
9.57606e-07
9.89012e-07
1.01246e-06
1.01724e-06
1.02058e-06
1.026e-06
1.02809e-06
1.03027e-06
1.03129e-06
1.02859e-06
1.0196e-06
1.01356e-06
1.00992e-06
1.00962e-06
1.01099e-06
1.01322e-06
1.01436e-06
1.01545e-06
1.013e-06
1.01124e-06
1.01012e-06
1.01005e-06
1.0114e-06
1.01365e-06
1.01126e-06
1.01324e-06
1.01005e-06
1.02154e-06
1.01407e-06
1.03286e-06
1.01036e-06
1.02695e-06
1.00331e-06
1.01564e-06
9.9643e-07
1.01487e-06
9.80783e-07
1.00206e-06
9.834e-07
9.53823e-07
1.00596e-06
9.2074e-07
1.00579e-06
9.34686e-07
9.77379e-07
9.60201e-07
9.41521e-07
9.77989e-07
8.93665e-07
9.83226e-07
8.27085e-07
9.66657e-07
7.07948e-07
8.9167e-07
5.23328e-07
6.82695e-07
2.91823e-07
4.3905e-07
2.15201e-07
3.97687e-07
2.65798e-07
5.13058e-07
7.01656e-07
1.31808e-06
3.30041e-06
3.14308e-06
9.21723e-06
1.36109e-05
1.01973e-05
4.11278e-06
1.12933e-06
4.81447e-07
4.11638e-07
4.03749e-07
4.00064e-07
3.98434e-07
3.9794e-07
3.9784e-07
3.97823e-07
3.97813e-07
3.97807e-07
3.97805e-07
3.97803e-07
3.97801e-07
3.97801e-07
3.978e-07
3.978e-07
3.978e-07
3.978e-07
3.978e-07
3.978e-07
3.978e-07
3.978e-07
3.978e-07
3.978e-07
3.978e-07
3.978e-07
3.97801e-07
3.978e-07
3.97801e-07
3.97801e-07
3.97803e-07
3.97804e-07
3.97806e-07
3.97811e-07
3.97817e-07
3.9783e-07
3.97853e-07
3.98002e-07
3.98478e-07
3.99758e-07
4.03052e-07
4.11206e-07
4.20643e-07
4.06796e-07
3.70442e-07
3.35345e-07
3.42555e-07
5.27508e-07
4.98546e-07
4.83797e-07
4.99363e-07
4.50313e-07
4.63724e-07
4.54885e-07
4.52646e-07
4.53973e-07
4.58675e-07
4.45736e-07
4.64873e-07
4.4206e-07
4.66553e-07
4.41553e-07
4.68605e-07
4.37982e-07
4.75666e-07
4.29121e-07
4.79982e-07
4.37781e-07
4.58803e-07
4.66568e-07
4.33499e-07
4.85583e-07
4.22402e-07
4.91961e-07
4.27279e-07
4.76145e-07
4.51762e-07
4.554e-07
4.64437e-07
4.53563e-07
4.62603e-07
4.5828e-07
4.61244e-07
4.60992e-07
4.61805e-07
4.623e-07
4.6292e-07
4.6346e-07
4.6383e-07
4.64516e-07
4.64827e-07
4.65642e-07
4.6612e-07
4.66702e-07
4.67184e-07
4.6764e-07
4.6831e-07
4.68684e-07
4.69328e-07
4.69905e-07
4.70226e-07
4.70788e-07
4.7158e-07
4.72356e-07
4.72766e-07
4.73117e-07
4.73567e-07
4.73966e-07
4.7487e-07
4.75788e-07
4.76821e-07
4.77701e-07
4.77788e-07
4.78491e-07
4.78812e-07
4.79412e-07
4.79709e-07
4.79856e-07
4.80538e-07
4.81081e-07
4.81618e-07
4.8209e-07
4.83222e-07
4.85291e-07
4.84017e-07
4.79096e-07
4.78376e-07
4.83665e-07
4.87087e-07
4.8642e-07
4.83937e-07
4.83441e-07
4.81467e-07
4.81432e-07
4.81092e-07
4.7884e-07
4.77292e-07
4.7523e-07
4.73003e-07
4.70264e-07
4.71278e-07
4.68091e-07
4.61488e-07
4.54327e-07
4.51979e-07
4.47804e-07
4.5255e-07
4.4801e-07
4.46634e-07
4.41826e-07
4.39226e-07
4.4259e-07
4.40716e-07
4.40248e-07
4.3734e-07
4.36832e-07
4.36152e-07
4.35791e-07
4.34358e-07
4.33378e-07
4.32943e-07
4.32108e-07
4.30901e-07
4.29873e-07
4.2924e-07
4.28682e-07
4.27829e-07
4.2661e-07
4.25461e-07
4.24626e-07
4.23956e-07
4.2303e-07
4.21884e-07
4.20904e-07
4.20133e-07
4.19272e-07
4.18344e-07
4.17702e-07
4.17083e-07
4.16294e-07
4.15511e-07
4.14734e-07
4.13922e-07
4.131e-07
4.12495e-07
4.12027e-07
4.11596e-07
4.11027e-07
4.10202e-07
4.09289e-07
4.08576e-07
4.08198e-07
4.08786e-07
4.09668e-07
4.11214e-07
4.1233e-07
4.12648e-07
4.13073e-07
4.11255e-07
4.09516e-07
4.08466e-07
4.04731e-07
4.03911e-07
4.07301e-07
3.95888e-07
3.99803e-07
3.89376e-07
3.8165e-07
3.86231e-07
3.92513e-07
3.98711e-07
4.02722e-07
4.05241e-07
4.05719e-07
4.0533e-07
4.04893e-07
4.04888e-07
4.05207e-07
4.0559e-07
4.0653e-07
4.08385e-07
4.10306e-07
4.11977e-07
4.13264e-07
4.1509e-07
4.17654e-07
4.18411e-07
4.20013e-07
4.24619e-07
4.2737e-07
4.2856e-07
4.33612e-07
4.38347e-07
4.39142e-07
4.41089e-07
4.43995e-07
4.4521e-07
4.45257e-07
4.46179e-07
4.46616e-07
4.4882e-07
4.51201e-07
4.49868e-07
4.47642e-07
4.49714e-07
4.53886e-07
4.53673e-07
4.52261e-07
4.5395e-07
4.56314e-07
4.5938e-07
4.57372e-07
4.53648e-07
4.53666e-07
4.56998e-07
4.59757e-07
4.61502e-07
4.62216e-07
4.62542e-07
4.63682e-07
4.65629e-07
4.66386e-07
4.6567e-07
4.64892e-07
4.68258e-07
4.69633e-07
4.72231e-07
4.69684e-07
4.69169e-07
4.75956e-07
4.78957e-07
4.83413e-07
4.83852e-07
4.8738e-07
4.89231e-07
5.07848e-07
5.25978e-07
5.03575e-07
4.91251e-07
4.90922e-07
4.89882e-07
4.90895e-07
4.94057e-07
4.98507e-07
5.00231e-07
5.0043e-07
5.01787e-07
5.02627e-07
5.07499e-07
5.17219e-07
5.15545e-07
5.07415e-07
5.02658e-07
5.1123e-07
5.15446e-07
5.1061e-07
5.05955e-07
5.06994e-07
5.10601e-07
5.13299e-07
5.14722e-07
5.15885e-07
5.174e-07
5.18569e-07
5.19884e-07
5.21194e-07
5.21682e-07
5.21637e-07
5.21871e-07
5.22596e-07
5.23725e-07
5.24969e-07
5.26235e-07
5.27162e-07
5.27995e-07
5.28346e-07
5.28692e-07
5.2909e-07
5.29636e-07
5.30174e-07
5.30689e-07
5.30626e-07
5.31172e-07
5.31186e-07
5.32913e-07
5.32264e-07
5.34186e-07
5.31795e-07
5.33314e-07
5.301e-07
5.32781e-07
5.27931e-07
5.31405e-07
5.31122e-07
5.16915e-07
5.48022e-07
4.959e-07
5.52609e-07
5.08864e-07
5.16898e-07
5.53283e-07
4.73379e-07
5.8687e-07
4.47202e-07
6.01848e-07
4.35268e-07
5.98803e-07
4.35649e-07
5.80012e-07
4.46205e-07
5.37904e-07
4.7337e-07
4.77462e-07
5.19238e-07
4.41372e-07
5.57297e-07
4.17102e-07
5.65465e-07
3.62258e-07
6.40628e-07
2.08808e-07
1.31191e-06
5.81198e-07
3.2155e-06
1.01378e-05
1.03426e-05
5.42239e-06
1.80085e-06
6.36784e-07
4.321e-07
4.05914e-07
4.00465e-07
3.98546e-07
3.97963e-07
3.97843e-07
3.97825e-07
3.97813e-07
3.97807e-07
3.97805e-07
3.97803e-07
3.97801e-07
3.97801e-07
3.978e-07
3.978e-07
3.978e-07
3.978e-07
3.978e-07
3.978e-07
3.978e-07
3.978e-07
3.978e-07
3.978e-07
3.978e-07
3.978e-07
3.978e-07
3.978e-07
3.97801e-07
3.97801e-07
3.97802e-07
3.97804e-07
3.97806e-07
3.97812e-07
3.97819e-07
3.97831e-07
3.97851e-07
3.97979e-07
3.98431e-07
3.9951e-07
4.01023e-07
4.0248e-07
4.1515e-07
4.6028e-07
5.0203e-07
5.00992e-07
4.47122e-07
3.65984e-07
4.43287e-07
4.22532e-07
4.39331e-07
4.42519e-07
4.40205e-07
4.46096e-07
4.40236e-07
4.50043e-07
4.3694e-07
4.55385e-07
4.3321e-07
4.59794e-07
4.30458e-07
4.62828e-07
4.28122e-07
4.66626e-07
4.24173e-07
4.71737e-07
4.2168e-07
4.70339e-07
4.30532e-07
4.56486e-07
4.4786e-07
4.41604e-07
4.61737e-07
4.30137e-07
4.70677e-07
4.29615e-07
4.63539e-07
4.43096e-07
4.52182e-07
4.51253e-07
4.49807e-07
4.52127e-07
4.51149e-07
4.52317e-07
4.52079e-07
4.52653e-07
4.52804e-07
4.53072e-07
4.5321e-07
4.53636e-07
4.53696e-07
4.54089e-07
4.54373e-07
4.54525e-07
4.54878e-07
4.54997e-07
4.55296e-07
4.55492e-07
4.55651e-07
4.56029e-07
4.56088e-07
4.56325e-07
4.5659e-07
4.56858e-07
4.56974e-07
4.5717e-07
4.57315e-07
4.57425e-07
4.57697e-07
4.57825e-07
4.57933e-07
4.5803e-07
4.57887e-07
4.57952e-07
4.57786e-07
4.57644e-07
4.57451e-07
4.57152e-07
4.57025e-07
4.56688e-07
4.5632e-07
4.55939e-07
4.55514e-07
4.55121e-07
4.54166e-07
4.53417e-07
4.52938e-07
4.52834e-07
4.52038e-07
4.50683e-07
4.49915e-07
4.48573e-07
4.47611e-07
4.46398e-07
4.45077e-07
4.43652e-07
4.42448e-07
4.408e-07
4.38921e-07
4.3743e-07
4.36249e-07
4.35152e-07
4.33216e-07
4.31917e-07
4.30587e-07
4.29711e-07
4.28608e-07
4.28668e-07
4.27425e-07
4.26776e-07
4.25511e-07
4.25455e-07
4.25115e-07
4.24169e-07
4.236e-07
4.22511e-07
4.22305e-07
4.21465e-07
4.20942e-07
4.2002e-07
4.1953e-07
4.18847e-07
4.1827e-07
4.17512e-07
4.16917e-07
4.16303e-07
4.15704e-07
4.15075e-07
4.14442e-07
4.13895e-07
4.13373e-07
4.12856e-07
4.12263e-07
4.11699e-07
4.11179e-07
4.10683e-07
4.1013e-07
4.09639e-07
4.09165e-07
4.0855e-07
4.07765e-07
4.06659e-07
4.05114e-07
4.03032e-07
4.00615e-07
3.98003e-07
3.95479e-07
3.93278e-07
3.91722e-07
3.90891e-07
3.90797e-07
3.91004e-07
3.9134e-07
3.91789e-07
3.91401e-07
3.91253e-07
3.90989e-07
3.90716e-07
3.91128e-07
3.9206e-07
3.93422e-07
3.96402e-07
3.96232e-07
3.93585e-07
4.00217e-07
4.04578e-07
4.12738e-07
4.13501e-07
4.09832e-07
4.0412e-07
4.00005e-07
3.97665e-07
3.97402e-07
3.97197e-07
3.97263e-07
3.97347e-07
3.97366e-07
3.96989e-07
3.9652e-07
3.96471e-07
3.96677e-07
3.96547e-07
3.96399e-07
3.96972e-07
3.98562e-07
4.00239e-07
4.02143e-07
4.05588e-07
4.09108e-07
4.11311e-07
4.13601e-07
4.16006e-07
4.17404e-07
4.18246e-07
4.19111e-07
4.19685e-07
4.19873e-07
4.20394e-07
4.21055e-07
4.2146e-07
4.22475e-07
4.23199e-07
4.23366e-07
4.23842e-07
4.24843e-07
4.25697e-07
4.26061e-07
4.26994e-07
4.27964e-07
4.28935e-07
4.29862e-07
4.30403e-07
4.30621e-07
4.31458e-07
4.3231e-07
4.33158e-07
4.33776e-07
4.34738e-07
4.35678e-07
4.37019e-07
4.37931e-07
4.39034e-07
4.39188e-07
4.4032e-07
4.41195e-07
4.41866e-07
4.4276e-07
4.43214e-07
4.43938e-07
4.45279e-07
4.46828e-07
4.47648e-07
4.49025e-07
4.50936e-07
4.52755e-07
4.56763e-07
4.61585e-07
4.60951e-07
4.60563e-07
4.603e-07
4.60171e-07
4.60966e-07
4.62238e-07
4.63315e-07
4.63923e-07
4.64964e-07
4.65726e-07
4.66905e-07
4.68034e-07
4.70029e-07
4.71188e-07
4.71245e-07
4.71278e-07
4.72731e-07
4.74157e-07
4.74251e-07
4.73955e-07
4.74246e-07
4.75081e-07
4.75916e-07
4.76617e-07
4.7732e-07
4.78078e-07
4.78667e-07
4.79247e-07
4.79855e-07
4.80392e-07
4.80955e-07
4.81536e-07
4.82161e-07
4.82772e-07
4.83373e-07
4.83944e-07
4.84467e-07
4.84966e-07
4.85418e-07
4.85877e-07
4.86254e-07
4.86651e-07
4.86969e-07
4.87215e-07
4.87374e-07
4.87568e-07
4.87597e-07
4.87827e-07
4.87779e-07
4.87884e-07
4.87517e-07
4.87822e-07
4.86717e-07
4.87788e-07
4.86647e-07
4.84761e-07
4.91737e-07
4.75713e-07
4.98104e-07
4.75553e-07
4.83039e-07
5.03578e-07
4.46571e-07
5.3488e-07
4.26435e-07
5.3944e-07
4.32726e-07
5.22471e-07
4.56274e-07
4.92217e-07
4.87898e-07
4.58373e-07
5.19721e-07
4.26485e-07
5.44328e-07
4.04617e-07
5.55737e-07
3.9296e-07
5.55881e-07
3.80335e-07
5.5907e-07
3.61916e-07
5.75232e-07
3.31841e-07
6.1462e-07
5.14108e-07
2.81563e-07
5.30729e-06
8.03926e-06
5.37979e-06
2.16933e-06
7.84347e-07
4.60901e-07
4.09872e-07
4.01085e-07
3.98686e-07
3.97988e-07
3.97844e-07
3.97823e-07
3.97813e-07
3.97807e-07
3.97805e-07
3.97803e-07
3.97801e-07
3.97801e-07
3.978e-07
3.978e-07
3.978e-07
3.978e-07
3.978e-07
3.978e-07
3.978e-07
3.978e-07
3.978e-07
3.978e-07
3.97801e-07
3.978e-07
3.978e-07
3.978e-07
3.97801e-07
3.97801e-07
3.97802e-07
3.97804e-07
3.97806e-07
3.97811e-07
3.97818e-07
3.9783e-07
3.97848e-07
3.97951e-07
3.9836e-07
3.99635e-07
4.02831e-07
4.03732e-07
3.80258e-07
3.31586e-07
3.34362e-07
3.85393e-07
4.35904e-07
4.56364e-07
4.13549e-07
4.4803e-07
4.24091e-07
4.43449e-07
4.3054e-07
4.41417e-07
4.34852e-07
4.39333e-07
4.38792e-07
4.36697e-07
4.42591e-07
4.33901e-07
4.46315e-07
4.3091e-07
4.50336e-07
4.27296e-07
4.55166e-07
4.22921e-07
4.59809e-07
4.20784e-07
4.60083e-07
4.24552e-07
4.54992e-07
4.31496e-07
4.47852e-07
4.41619e-07
4.37154e-07
4.51067e-07
4.34028e-07
4.49576e-07
4.39616e-07
4.45019e-07
4.43483e-07
4.43979e-07
4.44556e-07
4.44651e-07
4.44962e-07
4.45178e-07
4.45383e-07
4.45621e-07
4.45741e-07
4.46082e-07
4.46113e-07
4.46464e-07
4.46652e-07
4.46744e-07
4.47004e-07
4.46989e-07
4.47178e-07
4.47324e-07
4.4735e-07
4.47706e-07
4.47706e-07
4.47844e-07
4.47957e-07
4.48108e-07
4.48033e-07
4.4814e-07
4.48128e-07
4.48118e-07
4.483e-07
4.48269e-07
4.4817e-07
4.48129e-07
4.47879e-07
4.4784e-07
4.47536e-07
4.47244e-07
4.46944e-07
4.46529e-07
4.46245e-07
4.45725e-07
4.45222e-07
4.44717e-07
4.4412e-07
4.43495e-07
4.42538e-07
4.41918e-07
4.41173e-07
4.40577e-07
4.39308e-07
4.37878e-07
4.37156e-07
4.35836e-07
4.35003e-07
4.3376e-07
4.32394e-07
4.30978e-07
4.29723e-07
4.28296e-07
4.26623e-07
4.25104e-07
4.23952e-07
4.23435e-07
4.22299e-07
4.21335e-07
4.20234e-07
4.20042e-07
4.18509e-07
4.19067e-07
4.18077e-07
4.18139e-07
4.16983e-07
4.16626e-07
4.16633e-07
4.16015e-07
4.15905e-07
4.14755e-07
4.1464e-07
4.13913e-07
4.13695e-07
4.12954e-07
4.12529e-07
4.11927e-07
4.11517e-07
4.10948e-07
4.10422e-07
4.09917e-07
4.09346e-07
4.08849e-07
4.08322e-07
4.07793e-07
4.07337e-07
4.06854e-07
4.06397e-07
4.05973e-07
4.05572e-07
4.05248e-07
4.05025e-07
4.04906e-07
4.04866e-07
4.04754e-07
4.04418e-07
4.03823e-07
4.02949e-07
4.01933e-07
4.01073e-07
4.00572e-07
4.00629e-07
4.01291e-07
4.02594e-07
4.03542e-07
4.03838e-07
4.03577e-07
4.03074e-07
4.02963e-07
4.02905e-07
4.02929e-07
4.0344e-07
4.03808e-07
4.03465e-07
4.02404e-07
4.00874e-07
3.99494e-07
3.98372e-07
4.03544e-07
3.95446e-07
3.88683e-07
3.8316e-07
3.84915e-07
3.89817e-07
3.94246e-07
3.97093e-07
3.98165e-07
3.99097e-07
3.99453e-07
3.9981e-07
4.00319e-07
4.00852e-07
4.01666e-07
4.02251e-07
4.02694e-07
4.03072e-07
4.03814e-07
4.04611e-07
4.05079e-07
4.04973e-07
4.04523e-07
4.04647e-07
4.05563e-07
4.06538e-07
4.07456e-07
4.08886e-07
4.0977e-07
4.09957e-07
4.10205e-07
4.10536e-07
4.10487e-07
4.10622e-07
4.11081e-07
4.11454e-07
4.12078e-07
4.12886e-07
4.13285e-07
4.13623e-07
4.14261e-07
4.14967e-07
4.15376e-07
4.15825e-07
4.16587e-07
4.17284e-07
4.18058e-07
4.18283e-07
4.19027e-07
4.19448e-07
4.20238e-07
4.20643e-07
4.21106e-07
4.21442e-07
4.22393e-07
4.23038e-07
4.24369e-07
4.24844e-07
4.25561e-07
4.25859e-07
4.26954e-07
4.27648e-07
4.27788e-07
4.28564e-07
4.29316e-07
4.29956e-07
4.30502e-07
4.31692e-07
4.32049e-07
4.33615e-07
4.35314e-07
4.36972e-07
4.39409e-07
4.43159e-07
4.44005e-07