/*--------------------------------*- C++ -*----------------------------------*\
| =========                 |                                                 |
| \\      /  F ield         | OpenFOAM: The Open Source CFD Toolbox           |
|  \\    /   O peration     | Version:  v2006                                 |
|   \\  /    A nd           | Website:  www.openfoam.com                      |
|    \\/     M anipulation  |                                                 |
\*---------------------------------------------------------------------------*/
FoamFile
{
    version     2.0;
    format      ascii;
    class       volScalarField;
    location    "185";
    object      p;
}
// * * * * * * * * * * * * * * * * * * * * * * * * * * * * * * * * * * * * * //

dimensions      [1 -1 -2 0 0 0 0];


internalField   nonuniform List<scalar> 
93840
(
0.980961
0.980819
0.980461
0.98073
0.981459
0.982534
0.983847
0.985334
0.987013
0.989065
0.991572
0.994726
0.998685
1.00346
1.00909
1.01555
1.02166
1.02762
1.03388
1.03983
1.04397
1.044
1.04241
1.04046
1.03633
1.03246
1.03084
1.02887
1.02785
1.02753
1.03414
1.06253
1.04917
1.0619
1.05803
1.06028
1.061
1.06284
1.06481
1.06674
1.06822
1.06962
1.07104
1.07223
1.07378
1.07545
1.07698
1.07816
1.07975
1.08143
1.08253
1.08365
1.08577
1.08734
1.0868
1.08676
1.08736
1.08882
1.09062
1.09132
1.09194
1.09313
1.09327
1.09289
1.09315
1.09351
1.09353
1.09321
1.09366
1.09322
1.09273
1.09232
1.09134
1.09041
1.08955
1.08838
1.08727
1.08601
1.08447
1.08321
1.0819
1.08042
1.0786
1.0763
1.07427
1.07213
1.06973
1.06734
1.06489
1.06218
1.05887
1.0553
1.05133
1.0472
1.04325
1.03898
1.03426
1.02933
1.02434
1.019
1.01359
1.00835
1.00211
0.991603
0.983623
0.981057
0.976665
0.967619
0.960199
0.952027
0.944038
0.935597
0.92731
0.917714
0.908972
0.899961
0.892178
0.882536
0.875042
0.868104
0.864219
0.857559
0.856172
0.850575
0.856105
0.856143
0.860998
0.869556
0.870757
0.878658
0.883341
0.8927
0.899251
0.905665
0.911061
0.918653
0.925493
0.932334
0.938099
0.943046
0.947829
0.953762
0.96055
0.966076
0.971345
0.976236
0.981058
0.986203
0.991915
0.998499
1.00439
1.01013
1.0164
1.02295
1.02954
1.03632
1.04326
1.05062
1.05885
1.06695
1.07405
1.08141
1.08971
1.09858
1.1082
1.11877
1.13001
1.14102
1.15194
1.1647
1.17949
1.19566
1.21141
1.2277
1.24854
1.27111
1.29782
1.32896
1.35719
1.3789
1.40688
1.42104
1.39898
1.36411
1.21924
1.12703
0.953216
0.853361
0.795936
0.791275
0.731833
0.676343
0.64325
0.622245
0.595455
0.589093
0.586213
0.580294
0.575803
0.574664
0.584421
0.587063
0.583104
0.584842
0.590922
0.593448
0.595404
0.598937
0.603809
0.605615
0.60571
0.607982
0.608811
0.607865
0.60888
0.609715
0.611802
0.612296
0.61087
0.607493
0.602886
0.601385
0.600401
0.599025
0.600172
0.600716
0.599915
0.60059
0.601768
0.601699
0.59984
0.594727
0.590703
0.585559
0.583306
0.583465
0.582574
0.580046
0.57832
0.576709
0.575864
0.572772
0.57098
0.566844
0.564453
0.561271
0.561953
0.556144
0.560021
0.558364
0.549176
0.552138
0.549385
0.546132
0.546415
0.584168
0.688897
0.758458
0.787187
0.799573
0.805489
0.8104
0.814962
0.819578
0.825337
0.832842
0.837041
0.84242
0.850109
0.860354
0.865535
0.868159
0.873588
0.88271
0.889747
0.893843
0.898695
0.905077
0.91017
0.914887
0.922152
0.928153
0.933372
0.938564
0.943613
0.948034
0.951621
0.955068
0.95878
0.962582
0.965853
0.9686
0.971519
0.97487
0.978087
0.980696
0.982644
0.984141
0.985686
0.98746
0.989296
0.990951
0.992259
0.993199
0.993758
0.993897
0.993858
0.994141
0.994954
0.996169
0.997291
0.997898
0.998127
0.998428
0.99893
0.999812
1.00065
1.00123
1.00174
1.00225
1.00286
1.00363
1.00453
1.00524
1.00555
1.00551
1.00512
1.00485
1.00478
1.00456
1.00494
1.00637
1.00819
1.00813
1.01051
0.981336
1.01117
1.02544
1.0279
1.02811
1.02891
1.0322
1.0346
1.03593
1.04017
1.04285
1.04291
1.04339
1.04087
1.03443
1.02797
1.02139
1.01552
1.00906
1.00344
0.998666
0.99471
0.991558
0.98906
0.987009
0.98533
0.983844
0.982531
0.981459
0.980729
0.98046
0.980819
0.98096
0.980961
0.98082
0.980462
0.98073
0.981461
0.982535
0.983849
0.985337
0.987017
0.98907
0.991588
0.994747
0.998701
1.00347
1.00909
1.01553
1.02223
1.02787
1.03364
1.03803
1.0424
1.04315
1.0408
1.03958
1.03859
1.03407
1.03184
1.03069
1.03005
1.03061
1.03544
1.04867
1.05083
1.05743
1.0577
1.05921
1.06071
1.0624
1.06418
1.06596
1.06755
1.069
1.07054
1.07193
1.07349
1.07502
1.07655
1.0778
1.0791
1.08056
1.08173
1.08294
1.08466
1.08626
1.08664
1.08691
1.08766
1.08873
1.09007
1.09073
1.09122
1.09233
1.0929
1.093
1.09334
1.09349
1.09321
1.09294
1.09278
1.09249
1.09214
1.09182
1.09113
1.09039
1.08969
1.08871
1.0877
1.08651
1.08498
1.08356
1.0821
1.08053
1.07873
1.07649
1.07422
1.0719
1.06941
1.06699
1.06448
1.06164
1.05824
1.05478
1.05113
1.04721
1.04298
1.03841
1.03404
1.02951
1.02465
1.01937
1.01398
1.0087
1.00229
0.991794
0.983487
0.980562
0.976472
0.968447
0.960883
0.952231
0.943884
0.935838
0.927725
0.918191
0.909474
0.900625
0.892621
0.883478
0.876319
0.867882
0.863676
0.857909
0.857575
0.853168
0.857391
0.856053
0.861076
0.869942
0.872366
0.880515
0.884403
0.892565
0.899061
0.905783
0.911837
0.919835
0.925669
0.932944
0.938952
0.943831
0.948738
0.954778
0.961201
0.966615
0.971946
0.977058
0.981991
0.987107
0.993034
0.999125
1.0052
1.01139
1.01759
1.02412
1.03079
1.0377
1.04484
1.05234
1.06036
1.06841
1.07591
1.08359
1.09198
1.101
1.11072
1.12126
1.13248
1.14393
1.15564
1.16858
1.18319
1.19925
1.21584
1.23343
1.25364
1.27552
1.29747
1.32371
1.34962
1.37654
1.39854
1.40726
1.37549
1.33678
1.23907
1.15093
1.02291
0.933349
0.858841
0.821209
0.766625
0.714436
0.672887
0.645329
0.619854
0.608161
0.59749
0.587621
0.588478
0.591403
0.589131
0.584055
0.586595
0.594936
0.595723
0.593953
0.598019
0.603968
0.606346
0.606237
0.608324
0.610653
0.609966
0.609928
0.611397
0.611633
0.613503
0.61275
0.610221
0.608826
0.606436
0.603003
0.600186
0.599607
0.600857
0.600126
0.600179
0.602459
0.602362
0.601142
0.600729
0.596814
0.592465
0.588027
0.586083
0.58431
0.581399
0.578708
0.57937
0.578658
0.576512
0.572222
0.569646
0.565016
0.564142
0.563116
0.563703
0.556381
0.558099
0.557573
0.551221
0.553965
0.549251
0.544705
0.546298
0.585439
0.689021
0.758993
0.78617
0.798342
0.804934
0.810705
0.816022
0.821537
0.826454
0.831592
0.837489
0.843965
0.85066
0.85962
0.865552
0.869469
0.875455
0.884331
0.891229
0.895197
0.899838
0.906388
0.913008
0.91765
0.921873
0.926797
0.932007
0.937012
0.941865
0.946519
0.950811
0.954898
0.958688
0.962211
0.965663
0.969071
0.972222
0.974963
0.977409
0.979836
0.982245
0.984398
0.986161
0.987587
0.988721
0.989669
0.99057
0.99144
0.992196
0.992873
0.993661
0.994487
0.995306
0.996008
0.996626
0.997333
0.998178
0.999007
0.99967
1.0002
1.00068
1.00125
1.00182
1.00221
1.00254
1.00291
1.00341
1.00396
1.00452
1.00514
1.00546
1.00597
1.00669
1.00718
1.00749
1.0075
1.00681
1.00518
1.00567
1.00717
1.01473
1.01925
1.02326
1.02536
1.02805
1.03164
1.03529
1.03739
1.039
1.04134
1.04138
1.04113
1.04074
1.03507
1.02855
1.02134
1.01544
1.00901
1.00341
0.998639
0.994692
0.991545
0.989054
0.987006
0.985326
0.983842
0.98253
0.981457
0.980728
0.980459
0.980819
0.98096
0.980962
0.980821
0.980462
0.980732
0.981462
0.982539
0.983852
0.98534
0.987022
0.989078
0.991602
0.99477
0.998709
1.00348
1.00904
1.01546
1.02254
1.02869
1.0341
1.03711
1.04048
1.04168
1.03986
1.03845
1.03891
1.03701
1.0344
1.03331
1.03251
1.03442
1.03966
1.04684
1.05038
1.05501
1.05736
1.05887
1.06049
1.06225
1.06401
1.06568
1.06723
1.06869
1.07025
1.07174
1.07336
1.07489
1.07639
1.07761
1.07891
1.08022
1.08127
1.08245
1.08401
1.08563
1.08633
1.08687
1.08773
1.08875
1.08986
1.0904
1.09073
1.09185
1.09262
1.09293
1.09329
1.09334
1.093
1.09266
1.09241
1.09214
1.09186
1.09157
1.09099
1.09036
1.08971
1.08881
1.08787
1.08666
1.08509
1.08358
1.08201
1.08038
1.07859
1.07646
1.07423
1.07184
1.06933
1.06691
1.06438
1.06143
1.05775
1.05406
1.05058
1.04695
1.04265
1.03824
1.03436
1.03001
1.02518
1.01991
1.01457
1.00935
1.00299
0.992496
0.983572
0.980228
0.976995
0.969104
0.960983
0.951852
0.943771
0.936139
0.928123
0.918541
0.910009
0.901679
0.893859
0.885555
0.879073
0.870252
0.863512
0.855742
0.856475
0.854585
0.860349
0.858864
0.86072
0.86753
0.871432
0.881742
0.887962
0.89412
0.898889
0.905635
0.911282
0.920379
0.926891
0.931891
0.938887
0.944832
0.949686
0.954798
0.960676
0.966227
0.972236
0.977889
0.983137
0.98828
0.993762
0.999183
1.00464
1.01069
1.01719
1.02401
1.03105
1.03831
1.04575
1.05355
1.06172
1.06966
1.07705
1.0848
1.09324
1.10222
1.11195
1.12263
1.13399
1.14554
1.15758
1.17095
1.18577
1.20174
1.21834
1.23629
1.2566
1.2781
1.30349
1.32986
1.35387
1.37412
1.39378
1.40033
1.38225
1.3496
1.26493
1.17806
1.06278
0.968341
0.891341
0.843831
0.789122
0.736653
0.689339
0.661224
0.635716
0.615947
0.602052
0.597934
0.600943
0.595563
0.585138
0.585588
0.595714
0.600802
0.593827
0.593924
0.602846
0.607558
0.604713
0.606996
0.612377
0.611462
0.610608
0.613087
0.612123
0.611243
0.612267
0.610282
0.610849
0.613782
0.609395
0.600769
0.598723
0.601622
0.600336
0.599947
0.603608
0.6039
0.599977
0.60138
0.603531
0.59801
0.594518
0.590766
0.585884
0.580499
0.578519
0.581026
0.5839
0.578793
0.573594
0.570394
0.568907
0.566713
0.568927
0.566277
0.562562
0.552575
0.55736
0.561518
0.555133
0.552767
0.545914
0.545431
0.549891
0.586969
0.691257
0.760066
0.786059
0.796791
0.803226
0.809516
0.815561
0.822073
0.827352
0.831084
0.838433
0.843919
0.84993
0.858468
0.864904
0.869466
0.875676
0.88457
0.89166
0.895437
0.899774
0.906299
0.914001
0.919218
0.921945
0.926125
0.931349
0.936264
0.940992
0.945772
0.950398
0.954782
0.958684
0.962101
0.965589
0.969328
0.972562
0.974801
0.976848
0.979194
0.981752
0.984092
0.985867
0.987057
0.987887
0.988503
0.989206
0.990036
0.990941
0.992018
0.99334
0.994544
0.995405
0.995897
0.996283
0.996972
0.998105
0.99937
1.00022
1.00051
1.00065
1.00113
1.0018
1.0023
1.00265
1.00284
1.00294
1.00314
1.00362
1.00458
1.00566
1.00681
1.00788
1.00855
1.00882
1.00842
1.00753
1.00747
1.00898
1.01115
1.01646
1.02012
1.02358
1.02569
1.02724
1.03034
1.03419
1.03722
1.03893
1.04064
1.0419
1.0403
1.03989
1.0356
1.02916
1.02146
1.01528
1.00892
1.00338
0.998608
0.994673
0.991532
0.989046
0.987003
0.985323
0.983839
0.982528
0.981456
0.980727
0.980457
0.980819
0.980959
0.980962
0.980822
0.980461
0.980733
0.981464
0.98254
0.983853
0.985343
0.987027
0.989085
0.991612
0.994788
0.998714
1.00348
1.00896
1.01534
1.02261
1.02924
1.03498
1.03795
1.04044
1.04159
1.0413
1.0385
1.03693
1.03661
1.03496
1.03462
1.03492
1.03777
1.04144
1.04628
1.05013
1.05377
1.05637
1.05832
1.06011
1.06194
1.06365
1.06528
1.06682
1.06827
1.06982
1.07134
1.07297
1.07455
1.07613
1.07746
1.07878
1.08009
1.08116
1.08225
1.08355
1.08501
1.08588
1.08654
1.08747
1.08852
1.08958
1.09022
1.09063
1.09154
1.0922
1.09247
1.09278
1.09292
1.09274
1.09254
1.09238
1.09213
1.09183
1.09141
1.09074
1.09004
1.08929
1.08836
1.08737
1.08616
1.08464
1.08315
1.08162
1.07998
1.07815
1.07603
1.07399
1.07174
1.06928
1.06685
1.06431
1.06143
1.05789
1.05419
1.05058
1.04688
1.04285
1.03858
1.0343
1.02967
1.02472
1.01944
1.01408
1.00879
1.00256
0.992884
0.98448
0.980759
0.976788
0.968655
0.960899
0.952205
0.943945
0.936028
0.928062
0.918662
0.910107
0.901619
0.893821
0.884813
0.87891
0.873679
0.867733
0.85733
0.854314
0.852316
0.860381
0.862682
0.864601
0.868077
0.869114
0.879741
0.888484
0.896937
0.901722
0.907475
0.911775
0.919463
0.928288
0.933229
0.937917
0.944255
0.950352
0.956149
0.961889
0.966838
0.971955
0.977466
0.983214
0.989123
0.995274
1.00111
1.00669
1.01221
1.01808
1.02438
1.03108
1.03817
1.0457
1.05379
1.06233
1.07061
1.0784
1.08636
1.09495
1.10406
1.1137
1.12415
1.13554
1.14731
1.15962
1.17305
1.18788
1.20381
1.22053
1.23861
1.25867
1.27997
1.30484
1.32877
1.35175
1.37094
1.38805
1.39303
1.37641
1.34456
1.27129
1.19073
1.08531
0.99462
0.91724
0.863545
0.809423
0.754076
0.706317
0.680055
0.648465
0.622832
0.612564
0.611428
0.606134
0.591935
0.586568
0.595505
0.603764
0.599162
0.59245
0.599478
0.608377
0.60601
0.604329
0.611872
0.614766
0.610712
0.613371
0.614377
0.610848
0.611848
0.612644
0.612742
0.616947
0.616631
0.606289
0.598205
0.602201
0.603745
0.600615
0.603939
0.605712
0.600918
0.599203
0.605172
0.604024
0.59538
0.592716
0.587764
0.580539
0.578378
0.582875
0.586737
0.583085
0.574275
0.573044
0.574548
0.574828
0.573097
0.571051
0.563226
0.557962
0.553347
0.563008
0.565097
0.552661
0.548206
0.547106
0.550952
0.550303
0.582571
0.690156
0.760824
0.787754
0.798589
0.804609
0.810194
0.815738
0.821571
0.826861
0.831901
0.83835
0.843114
0.849844
0.859161
0.865035
0.868955
0.874903
0.883747
0.89086
0.89483
0.899244
0.905491
0.912451
0.918337
0.922658
0.927217
0.932268
0.937146
0.941883
0.946597
0.951001
0.955144
0.958795
0.962288
0.965829
0.969304
0.972302
0.974642
0.976926
0.979243
0.981499
0.983577
0.985355
0.986789
0.987841
0.98863
0.989287
0.98994
0.990738
0.991796
0.993132
0.994401
0.995387
0.996066
0.996612
0.997228
0.998154
0.999256
1.00015
1.00052
1.00067
1.00113
1.00186
1.00253
1.00302
1.00321
1.0033
1.00345
1.00372
1.00444
1.00543
1.0065
1.00748
1.0082
1.00865
1.00877
1.00833
1.00864
1.00987
1.01292
1.01762
1.02161
1.02498
1.02783
1.02946
1.0308
1.03323
1.03667
1.03966
1.04182
1.04355
1.04166
1.03891
1.03571
1.02946
1.02161
1.01498
1.00877
1.00334
0.998576
0.994658
0.991521
0.989039
0.986998
0.98532
0.983837
0.982527
0.981455
0.980726
0.980455
0.980819
0.980959
0.980963
0.980823
0.980461
0.980734
0.981465
0.982542
0.983856
0.985347
0.987033
0.989091
0.991621
0.994803
0.998716
1.00349
1.0089
1.01511
1.02252
1.02925
1.03529
1.04044
1.04238
1.04307
1.04338
1.04029
1.03523
1.03448
1.03425
1.03501
1.03689
1.0399
1.04315
1.04689
1.04996
1.05309
1.05565
1.05776
1.05968
1.06157
1.06328
1.06493
1.06649
1.06793
1.06946
1.07094
1.07255
1.07412
1.07576
1.0772
1.07865
1.08002
1.08115
1.08221
1.08333
1.08457
1.0854
1.08604
1.08699
1.08809
1.08926
1.09009
1.09068
1.09137
1.0918
1.0919
1.09213
1.09243
1.09253
1.09255
1.0925
1.09219
1.09174
1.09112
1.09029
1.08946
1.0886
1.08765
1.08668
1.08554
1.0842
1.08291
1.08151
1.07993
1.07803
1.07571
1.07351
1.07124
1.0688
1.06635
1.0638
1.06106
1.05795
1.05475
1.05114
1.04723
1.04297
1.03804
1.03318
1.02848
1.02367
1.01845
1.01314
1.00786
1.00144
0.991584
0.983712
0.980524
0.975608
0.967645
0.961182
0.953163
0.944785
0.936294
0.927949
0.918073
0.909069
0.9
0.891879
0.881589
0.875556
0.87243
0.870783
0.863014
0.8569
0.850252
0.857077
0.86154
0.867965
0.873278
0.87145
0.877312
0.885145
0.896252
0.903611
0.909054
0.913977
0.91906
0.927271
0.935655
0.93952
0.943436
0.94903
0.956016
0.962932
0.96866
0.97314
0.977366
0.982246
0.98793
0.99465
1.00157
1.00824
1.01428
1.02035
1.02647
1.03267
1.03922
1.04624
1.05387
1.06205
1.07037
1.07863
1.08695
1.09582
1.10532
1.11532
1.12586
1.13712
1.14894
1.16143
1.17505
1.18986
1.20568
1.22235
1.24047
1.26013
1.28116
1.3051
1.32748
1.34868
1.36662
1.38163
1.38535
1.36954
1.33959
1.27632
1.20205
1.10508
1.01839
0.94059
0.882944
0.827593
0.771289
0.727071
0.696726
0.65818
0.632289
0.626034
0.61909
0.606957
0.592667
0.595758
0.606183
0.60515
0.595405
0.597289
0.607251
0.608771
0.60351
0.608895
0.61646
0.613315
0.612066
0.616254
0.613115
0.611719
0.615149
0.616227
0.618982
0.619403
0.612828
0.602066
0.602123
0.607567
0.602629
0.60242
0.605915
0.602538
0.597986
0.603591
0.6068
0.601002
0.593586
0.589779
0.58314
0.579758
0.585141
0.589986
0.585344
0.576744
0.573276
0.579164
0.579574
0.577326
0.572213
0.565579
0.557672
0.559465
0.561865
0.56579
0.561115
0.546748
0.549345
0.554648
0.552084
0.545404
0.576401
0.685221
0.758965
0.787267
0.800173
0.807099
0.812514
0.817374
0.822153
0.82628
0.831695
0.837081
0.843518
0.851372
0.860962
0.866506
0.869624
0.875178
0.883641
0.890649
0.895021
0.899768
0.905689
0.91049
0.915936
0.922404
0.927967
0.932987
0.93804
0.943034
0.947798
0.951886
0.955379
0.958777
0.962375
0.965924
0.968976
0.971703
0.974517
0.977354
0.979853
0.981748
0.983351
0.984984
0.986673
0.988205
0.98943
0.990291
0.990938
0.991624
0.992362
0.993268
0.994161
0.99508
0.996132
0.997137
0.997905
0.998415
0.998928
0.999573
1.00023
1.00072
1.00127
1.00195
1.00261
1.00314
1.00357
1.00398
1.00432
1.00457
1.00492
1.00527
1.00565
1.00608
1.00668
1.0077
1.00895
1.00939
1.00985
1.01109
1.01454
1.01767
1.02137
1.02495
1.02767
1.03016
1.03258
1.03435
1.03751
1.04045
1.04244
1.04377
1.04324
1.03875
1.03538
1.02923
1.02173
1.01471
1.00863
1.0033
0.998541
0.994646
0.991512
0.989032
0.986994
0.985318
0.983835
0.982525
0.981453
0.980725
0.980454
0.980819
0.980959
0.980963
0.980823
0.980462
0.980735
0.981467
0.982543
0.983858
0.98535
0.987037
0.989096
0.991629
0.994815
0.998722
1.0035
1.00889
1.01492
1.02228
1.02889
1.03482
1.04122
1.04335
1.04354
1.0431
1.04195
1.03738
1.03425
1.0343
1.03572
1.03812
1.04093
1.04465
1.04719
1.04973
1.05269
1.05516
1.05732
1.05924
1.06113
1.06289
1.06459
1.06621
1.06771
1.06923
1.07067
1.07219
1.07365
1.07523
1.07669
1.07818
1.07963
1.08088
1.08206
1.08306
1.08417
1.08497
1.08564
1.08655
1.08759
1.08878
1.08978
1.09048
1.09111
1.09143
1.09153
1.09175
1.09208
1.09225
1.09231
1.0922
1.09185
1.0914
1.09081
1.09004
1.08928
1.08845
1.08751
1.08652
1.08538
1.0841
1.08285
1.08148
1.07993
1.07809
1.07583
1.07351
1.07114
1.06869
1.06627
1.06378
1.06102
1.05781
1.05457
1.05104
1.04719
1.04309
1.03854
1.03362
1.02861
1.02364
1.01836
1.01295
1.00753
1.00121
0.992294
0.984788
0.981375
0.976182
0.96766
0.960721
0.952674
0.94524
0.937278
0.929378
0.920287
0.911638
0.902626
0.894507
0.883261
0.874251
0.868089
0.867841
0.864979
0.863295
0.854661
0.855574
0.857295
0.865939
0.875508
0.8779
0.880239
0.883023
0.892914
0.901743
0.90829
0.91519
0.921384
0.925667
0.93485
0.941986
0.946099
0.949806
0.955208
0.961926
0.968813
0.974922
0.979937
0.984111
0.988488
0.994019
1.00031
1.00728
1.01418
1.02101
1.02796
1.03491
1.04186
1.04879
1.05592
1.06341
1.07123
1.07934
1.08773
1.09665
1.10631
1.11662
1.12746
1.13869
1.1506
1.16318
1.17684
1.19145
1.20717
1.22384
1.24182
1.26107
1.28167
1.30419
1.32521
1.34514
1.36182
1.37477
1.37726
1.36213
1.33374
1.27748
1.20867
1.12018
1.03748
0.961575
0.901453
0.844732
0.7901
0.746938
0.709502
0.667542
0.646996
0.637977
0.624573
0.606149
0.601121
0.608496
0.608992
0.601264
0.59738
0.605767
0.609473
0.605193
0.606474
0.615294
0.61664
0.612018
0.616174
0.616979
0.61312
0.616201
0.617452
0.618435
0.619663
0.615609
0.608067
0.605503
0.610336
0.60674
0.600309
0.603303
0.60325
0.598398
0.60178
0.607769
0.603621
0.599686
0.598171
0.592723
0.58681
0.589021
0.591847
0.587553
0.578163
0.574952
0.5808
0.582914
0.576437
0.571715
0.56487
0.560212
0.560287
0.568691
0.564071
0.560002
0.554523
0.548394
0.557939
0.556293
0.546306
0.542598
0.578812
0.691836
0.765941
0.790639
0.801578
0.8075
0.812571
0.817539
0.822303
0.826609
0.831912
0.837552
0.844786
0.852203
0.86105
0.86679
0.870211
0.875908
0.884148
0.890948
0.895444
0.90044
0.906262
0.910773
0.915282
0.921855
0.927864
0.933047
0.938236
0.943296
0.947973
0.951981
0.955582
0.959147
0.96269
0.965976
0.96883
0.971609
0.974743
0.97787
0.980336
0.982107
0.983569
0.985095
0.986845
0.988655
0.990213
0.991431
0.992265
0.992902
0.993414
0.993819
0.994273
0.99498
0.996047
0.997283
0.9983
0.998749
0.998812
0.99904
0.999835
1.00076
1.00141
1.00197
1.00257
1.00313
1.00367
1.00428
1.00483
1.00516
1.00532
1.0054
1.00525
1.00517
1.00555
1.00662
1.00833
1.01
1.01158
1.01345
1.01536
1.01766
1.01955
1.02225
1.0244
1.02746
1.03148
1.0351
1.03764
1.04013
1.04191
1.04263
1.04369
1.03922
1.03456
1.02848
1.02179
1.01457
1.00855
1.00324
0.998511
0.994638
0.991507
0.989027
0.986987
0.985315
0.983832
0.982524
0.981452
0.980724
0.980454
0.980818
0.980958
0.980963
0.980824
0.980464
0.980736
0.981468
0.982544
0.98386
0.985353
0.987041
0.989101
0.991637
0.994825
0.998725
1.00352
1.00891
1.01486
1.02178
1.02826
1.03406
1.04023
1.0422
1.04235
1.04114
1.04147
1.04106
1.03778
1.03653
1.03704
1.03874
1.04181
1.04573
1.04787
1.04978
1.05255
1.05484
1.05694
1.05885
1.06073
1.06247
1.06421
1.06588
1.06746
1.06901
1.07047
1.07189
1.0732
1.07466
1.07605
1.07754
1.07902
1.08039
1.08174
1.0829
1.08394
1.0847
1.08531
1.08608
1.0871
1.08824
1.08925
1.08997
1.09076
1.09127
1.09145
1.09158
1.09171
1.09174
1.09169
1.09163
1.0915
1.09127
1.09089
1.09032
1.08965
1.0888
1.08776
1.08661
1.0852
1.08364
1.08214
1.08059
1.079
1.07726
1.0753
1.07337
1.07126
1.069
1.06671
1.06423
1.06142
1.05818
1.0546
1.05067
1.04644
1.04251
1.0391
1.035
1.03023
1.0252
1.01992
1.01448
1.00886
1.00209
0.992826
0.985636
0.982163
0.977554
0.969183
0.961207
0.952191
0.943992
0.936318
0.928903
0.920765
0.913118
0.905067
0.897984
0.889512
0.879396
0.867429
0.863448
0.861459
0.864207
0.861254
0.860395
0.856627
0.86207
0.872428
0.879206
0.885963
0.887169
0.892235
0.899094
0.906609
0.91438
0.92349
0.92732
0.932671
0.940908
0.947416
0.952487
0.956894
0.961724
0.967421
0.974184
0.980548
0.986144
0.99128
0.996057
1.00094
1.00666
1.0131
1.02002
1.02746
1.035
1.04247
1.04994
1.05757
1.06536
1.07316
1.08101
1.08927
1.098
1.10745
1.11784
1.12888
1.14023
1.15209
1.16479
1.17846
1.19307
1.20859
1.22501
1.24276
1.26164
1.2816
1.30272
1.3226
1.34119
1.35649
1.36766
1.36896
1.35441
1.32757
1.27679
1.21344
1.13249
1.05391
0.980246
0.918667
0.860501
0.808237
0.762766
0.719243
0.680296
0.662715
0.646614
0.625356
0.612338
0.614817
0.61451
0.609922
0.600522
0.604911
0.61178
0.609773
0.605434
0.612695
0.617037
0.61404
0.615014
0.619442
0.616554
0.616953
0.619167
0.617197
0.617815
0.616343
0.61157
0.610081
0.614247
0.610991
0.601968
0.601267
0.60313
0.600044
0.600698
0.608174
0.606043
0.600384
0.6038
0.603505
0.598697
0.595755
0.593573
0.588779
0.580108
0.576018
0.582488
0.585401
0.579096
0.57025
0.566675
0.562373
0.564203
0.570406
0.570194
0.558052
0.55413
0.556079
0.55872
0.560014
0.55066
0.542252
0.547827
0.58523
0.697799
0.77103
0.791027
0.799361
0.804129
0.809261
0.814318
0.81904
0.825343
0.833045
0.838435
0.843679
0.850248
0.858441
0.864088
0.86798
0.873986
0.882238
0.88898
0.893312
0.898173
0.904407
0.910906
0.916765
0.922177
0.927604
0.932938
0.937952
0.942602
0.946936
0.950992
0.955082
0.959044
0.962592
0.965689
0.968724
0.971969
0.975223
0.978059
0.98035
0.982271
0.983984
0.985732
0.987443
0.98901
0.990425
0.991697
0.992666
0.993366
0.99389
0.994326
0.994681
0.995265
0.996161
0.997071
0.997956
0.998615
0.998873
0.999144
0.999833
1.00086
1.00155
1.00196
1.0024
1.00294
1.00345
1.00396
1.00455
1.005
1.0053
1.00545
1.00561
1.00574
1.00616
1.00725
1.00911
1.01152
1.01378
1.01575
1.01709
1.01823
1.01951
1.02082
1.02208
1.02602
1.02969
1.03325
1.03614
1.03861
1.04195
1.04281
1.04266
1.03959
1.03376
1.0276
1.02175
1.01451
1.00851
1.00319
0.998482
0.99463
0.991505
0.989023
0.986981
0.985312
0.98383
0.982522
0.981451
0.980724
0.980453
0.980816
0.980958
0.980964
0.980824
0.980465
0.980738
0.981469
0.982546
0.983863
0.985357
0.987045
0.989108
0.991646
0.994832
0.998736
1.00355
1.00898
1.0149
1.02133
1.02785
1.03388
1.03825
1.04068
1.0412
1.03976
1.03954
1.04107
1.04077
1.03939
1.03867
1.04021
1.0417
1.04516
1.04904
1.05119
1.05326
1.05497
1.05682
1.05857
1.06033
1.062
1.06373
1.0654
1.067
1.06858
1.07005
1.07143
1.0727
1.07398
1.0752
1.07657
1.07805
1.07954
1.08106
1.08249
1.08371
1.08461
1.08528
1.08595
1.08662
1.08749
1.08842
1.08928
1.09029
1.09108
1.09146
1.09155
1.09144
1.09122
1.09101
1.09087
1.09082
1.09072
1.0905
1.0901
1.08957
1.08883
1.0879
1.08685
1.08555
1.08404
1.08248
1.08081
1.07908
1.07725
1.07541
1.07359
1.07156
1.06934
1.06702
1.06445
1.06151
1.05805
1.05424
1.05027
1.04634
1.04183
1.03755
1.03409
1.03006
1.02537
1.0203
1.01514
1.00978
1.00296
0.992481
0.98413
0.980422
0.976415
0.969356
0.962175
0.953858
0.94509
0.936454
0.927771
0.918627
0.911012
0.903394
0.896761
0.890447
0.884792
0.873906
0.864373
0.857918
0.860161
0.861392
0.865464
0.862682
0.862475
0.868843
0.875502
0.886209
0.892495
0.8968
0.900282
0.907293
0.913428
0.922831
0.930555
0.933463
0.939049
0.945992
0.952701
0.958768
0.964028
0.96792
0.973156
0.979268
0.985796
0.992034
0.997972
1.00361
1.00856
1.01411
1.02025
1.02689
1.03405
1.0418
1.04988
1.05823
1.06651
1.07451
1.08251
1.09086
1.09961
1.10889
1.11908
1.13014
1.14164
1.15348
1.16614
1.17974
1.19432
1.2098
1.22601
1.24335
1.26171
1.28088
1.3009
1.31961
1.33686
1.35081
1.36039
1.36061
1.34655
1.32105
1.27509
1.21618
1.14205
1.06767
0.996526
0.933789
0.876203
0.825734
0.776834
0.730326
0.698685
0.676209
0.652957
0.6299
0.625862
0.624769
0.618316
0.606214
0.605268
0.613374
0.613962
0.607511
0.610039
0.617142
0.617245
0.614549
0.619941
0.620274
0.617952
0.620856
0.61901
0.616722
0.616835
0.614399
0.613236
0.618311
0.616413
0.607366
0.6007
0.604858
0.603293
0.601785
0.607613
0.608021
0.601856
0.602674
0.607774
0.602421
0.598483
0.595652
0.590025
0.581463
0.578024
0.582589
0.587796
0.582149
0.573862
0.570128
0.569979
0.570398
0.573913
0.571091
0.564149
0.55307
0.556316
0.566008
0.561132
0.55442
0.546082
0.546728
0.553837
0.582409
0.691819
0.766589
0.787171
0.798255
0.805312
0.811386
0.816071
0.821305
0.828389
0.835341
0.840186
0.844091
0.849512
0.857508
0.864504
0.86933
0.875605
0.883478
0.890397
0.894863
0.899514
0.906062
0.913187
0.918553
0.923056
0.927797
0.932958
0.937782
0.942213
0.946371
0.95021
0.954187
0.958183
0.961813
0.965103
0.968498
0.972144
0.975322
0.977785
0.979933
0.982153
0.9843
0.986116
0.987557
0.988721
0.989775
0.990904
0.991945
0.992787
0.993448
0.994194
0.994965
0.995725
0.996354
0.996762
0.997267
0.998022
0.998889
0.99964
1.00027
1.00098
1.00154
1.00182
1.00208
1.00256
1.0031
1.00347
1.00385
1.00426
1.00476
1.00546
1.00634
1.00718
1.00771
1.00865
1.01055
1.01296
1.01541
1.01731
1.01846
1.01917
1.01983
1.02158
1.02409
1.02635
1.02916
1.03292
1.03619
1.03998
1.04277
1.0437
1.04167
1.03975
1.03363
1.02735
1.02163
1.01458
1.00851
1.00314
0.998456
0.994617
0.9915
0.989022
0.986976
0.985309
0.983827
0.982521
0.98145
0.980723
0.980453
0.980815
0.980957
0.980964
0.980824
0.980466
0.980738
0.98147
0.982547
0.983866
0.985361
0.987051
0.989117
0.991655
0.994839
0.99875
1.00358
1.00909
1.01503
1.02124
1.02799
1.03451
1.03767
1.04091
1.04204
1.0412
1.03866
1.0386
1.04
1.04012
1.04035
1.0429
1.04266
1.04423
1.04824
1.05168
1.05382
1.05562
1.05747
1.05903
1.0606
1.06208
1.06364
1.06517
1.06678
1.06841
1.07
1.07151
1.07287
1.0741
1.07517
1.07622
1.07731
1.07852
1.07993
1.08139
1.08281
1.08403
1.08507
1.08607
1.08684
1.08744
1.08795
1.08847
1.08933
1.09026
1.09092
1.09132
1.09146
1.09138
1.09115
1.09077
1.09031
1.08985
1.08938
1.08891
1.08842
1.08782
1.08708
1.08627
1.0853
1.08418
1.08295
1.0815
1.07981
1.07783
1.07562
1.07336
1.07098
1.06852
1.06602
1.06335
1.0603
1.0566
1.05291
1.04962
1.04661
1.04285
1.0374
1.03237
1.02789
1.02317
1.01806
1.01295
1.00793
1.00214
0.993627
0.984471
0.980358
0.97565
0.967936
0.961064
0.953857
0.946668
0.938611
0.929552
0.918802
0.90974
0.901141
0.893647
0.886552
0.883381
0.878143
0.871198
0.859728
0.857489
0.857248
0.864913
0.867005
0.868157
0.869938
0.872888
0.882748
0.892447
0.899777
0.904818
0.91039
0.914776
0.921185
0.930606
0.93678
0.940108
0.945135
0.951286
0.958386
0.965141
0.970458
0.97438
0.979085
0.984652
0.991
0.998098
1.00449
1.01049
1.01645
1.02231
1.02831
1.03481
1.04186
1.04944
1.05771
1.06645
1.07516
1.08353
1.09205
1.10105
1.11043
1.12039
1.13121
1.14286
1.15484
1.16742
1.18088
1.19527
1.21056
1.22665
1.24367
1.26132
1.27985
1.2987
1.31627
1.33226
1.3449
1.35305
1.35229
1.3387
1.31443
1.27261
1.21792
1.1496
1.07928
1.01018
0.94723
0.892155
0.841279
0.787593
0.746068
0.715699
0.686455
0.655987
0.640783
0.638594
0.63012
0.61642
0.608837
0.614582
0.618165
0.613948
0.60933
0.615728
0.618781
0.615835
0.618644
0.622532
0.620268
0.621452
0.621934
0.618085
0.618325
0.61803
0.61677
0.620409
0.621273
0.615516
0.604142
0.604376
0.60705
0.604711
0.607157
0.608358
0.604017
0.601364
0.60772
0.607321
0.598751
0.594971
0.590741
0.583808
0.579996
0.583531
0.588851
0.586175
0.576507
0.574442
0.577863
0.578818
0.576191
0.573613
0.565087
0.559515
0.555493
0.565155
0.567337
0.556644
0.549597
0.548577
0.554557
0.552241
0.574321
0.683462
0.765082
0.791132
0.803798
0.809735
0.814175
0.819388
0.826113
0.830676
0.833644
0.83885
0.844437
0.851654
0.861007
0.867851
0.872133
0.877952
0.88615
0.8935
0.898023
0.902543
0.908994
0.915339
0.919373
0.922815
0.926729
0.931443
0.93633
0.941165
0.9459
0.950245
0.954342
0.958074
0.961682
0.965191
0.968686
0.971941
0.974771
0.977228
0.979585
0.982113
0.98435
0.986048
0.987288
0.988179
0.988924
0.989739
0.990639
0.991563
0.99251
0.993556
0.994734
0.995835
0.996556
0.996903
0.997159
0.997757
0.998876
1.00004
1.00072
1.00108
1.00134
1.00162
1.00191
1.00233
1.00286
1.00339
1.00371
1.00408
1.00455
1.00535
1.00674
1.00842
1.00947
1.01036
1.01162
1.01351
1.01545
1.01721
1.01864
1.01977
1.02177
1.02419
1.0266
1.02877
1.03151
1.03331
1.03811
1.04141
1.04208
1.04315
1.04184
1.03956
1.03407
1.02771
1.02146
1.01466
1.00855
1.00311
0.998434
0.994609
0.991492
0.98902
0.986974
0.985304
0.983825
0.982519
0.981448
0.980722
0.980453
0.980814
0.980957
0.980964
0.980825
0.980467
0.98074
0.981472
0.98255
0.983868
0.985365
0.987056
0.989127
0.991664
0.994845
0.998765
1.00359
1.0092
1.01532
1.02141
1.02863
1.03554
1.0386
1.04219
1.04338
1.0434
1.04064
1.03739
1.03791
1.03952
1.0412
1.04482
1.04632
1.04546
1.04714
1.04976
1.05267
1.05524
1.05745
1.05925
1.06088
1.06235
1.06375
1.06507
1.06649
1.06801
1.06966
1.07134
1.07293
1.07443
1.07574
1.07685
1.07773
1.07865
1.07968
1.08071
1.0818
1.08283
1.08393
1.08522
1.08652
1.08757
1.08818
1.08837
1.08859
1.08904
1.08957
1.09017
1.09073
1.09108
1.09117
1.09101
1.09065
1.0901
1.0894
1.08863
1.08783
1.08697
1.08605
1.08503
1.0839
1.08276
1.08166
1.08044
1.07899
1.07708
1.07469
1.07223
1.06972
1.06718
1.06466
1.06206
1.05932
1.05643
1.05354
1.05029
1.04648
1.04306
1.03903
1.03365
1.02828
1.02315
1.01774
1.01215
1.00657
1.00078
0.994176
0.986731
0.982397
0.976869
0.968695
0.960905
0.952483
0.945748
0.938889
0.931743
0.922332
0.912876
0.903065
0.893816
0.884268
0.878917
0.876903
0.873817
0.866388
0.859474
0.85569
0.861128
0.866759
0.871058
0.875296
0.874502
0.881045
0.889021
0.899067
0.905836
0.911547
0.91728
0.921666
0.928757
0.93731
0.942904
0.946784
0.951383
0.957334
0.964536
0.971156
0.976519
0.980891
0.985368
0.990762