/*--------------------------------*- C++ -*----------------------------------*\
| =========                 |                                                 |
| \\      /  F ield         | OpenFOAM: The Open Source CFD Toolbox           |
|  \\    /   O peration     | Version:  v2006                                 |
|   \\  /    A nd           | Website:  www.openfoam.com                      |
|    \\/     M anipulation  |                                                 |
\*---------------------------------------------------------------------------*/
FoamFile
{
    version     2.0;
    format      ascii;
    class       volScalarField;
    location    "185";
    object      pMean;
}
// * * * * * * * * * * * * * * * * * * * * * * * * * * * * * * * * * * * * * //

dimensions      [1 -1 -2 0 0 0 0];


internalField   nonuniform List<scalar> 
93840
(
0.986178
0.985996
0.985762
0.986053
0.986678
0.987567
0.988634
0.989886
0.991387
0.993286
0.995687
0.998741
1.00254
1.00718
1.01261
1.01873
1.02528
1.03187
1.03792
1.04276
1.04593
1.04725
1.04678
1.04495
1.04245
1.03958
1.03684
1.03438
1.0325
1.03248
1.03874
1.06681
1.05386
1.06659
1.06285
1.06506
1.06563
1.06748
1.06938
1.07117
1.0726
1.07399
1.07544
1.07668
1.07828
1.07998
1.0815
1.0826
1.08409
1.08564
1.08657
1.08764
1.08982
1.09153
1.09124
1.09147
1.09221
1.09361
1.0953
1.09577
1.09619
1.09753
1.09791
1.0978
1.09818
1.0984
1.09817
1.09765
1.09784
1.09738
1.09689
1.09653
1.09564
1.09479
1.09403
1.09292
1.09189
1.09063
1.08902
1.08762
1.08618
1.08464
1.08283
1.08058
1.07843
1.07615
1.07368
1.0713
1.06886
1.06608
1.06264
1.0591
1.05545
1.05159
1.04748
1.04304
1.03862
1.03399
1.02916
1.02389
1.0186
1.01352
1.00738
0.996693
0.988384
0.985658
0.981837
0.973458
0.965986
0.957518
0.949327
0.94125
0.933218
0.923678
0.915052
0.906454
0.898767
0.889493
0.882489
0.875206
0.870726
0.863643
0.862409
0.85782
0.863622
0.8634
0.86757
0.875723
0.876764
0.885284
0.890211
0.898802
0.904816
0.911176
0.916655
0.924492
0.930974
0.937473
0.943277
0.948516
0.953439
0.959174
0.965734
0.971036
0.976376
0.981464
0.986396
0.991511
0.99718
1.00357
1.00922
1.01488
1.02118
1.02768
1.03426
1.04107
1.0481
1.05557
1.06381
1.07182
1.07887
1.08622
1.09448
1.10324
1.11269
1.12317
1.13438
1.14537
1.15626
1.16899
1.18371
1.19976
1.21542
1.23166
1.2524
1.27484
1.30144
1.33216
1.35995
1.3813
1.40896
1.42182
1.39911
1.36289
1.21676
1.12403
0.949269
0.849722
0.79295
0.789689
0.73029
0.67546
0.639878
0.619018
0.594833
0.585583
0.580694
0.576963
0.576707
0.575553
0.578905
0.582074
0.583949
0.586172
0.588055
0.591695
0.595699
0.598812
0.601934
0.604819
0.606209
0.607492
0.608358
0.608557
0.609377
0.610834
0.612268
0.612045
0.611708
0.609982
0.605065
0.602071
0.601885
0.601668
0.601912
0.602696
0.602981
0.603313
0.603807
0.604786
0.603786
0.598024
0.594474
0.589997
0.587112
0.586037
0.585355
0.58401
0.583251
0.581013
0.579828
0.576964
0.575633
0.572038
0.57115
0.568569
0.568866
0.56299
0.567917
0.567795
0.559139
0.561224
0.558907
0.566739
0.608681
0.689982
0.754094
0.781178
0.791389
0.797368
0.801814
0.806895
0.811814
0.817458
0.823155
0.829355
0.835644
0.842067
0.849677
0.860162
0.865677
0.868726
0.87469
0.884098
0.891185
0.894928
0.899527
0.906221
0.912891
0.918305
0.923633
0.928928
0.934163
0.939198
0.944138
0.948915
0.953255
0.957362
0.961296
0.965058
0.968621
0.971962
0.975106
0.978035
0.980734
0.98324
0.985568
0.9877
0.989651
0.991401
0.992964
0.994368
0.995637
0.996776
0.99781
0.99873
0.999538
1.00027
1.00096
1.00161
1.00223
1.00285
1.00346
1.00405
1.00464
1.0052
1.00575
1.00627
1.00677
1.00725
1.00769
1.00811
1.00849
1.00885
1.00921
1.00962
1.01005
1.01038
1.01071
1.01105
1.01147
1.01209
1.01285
1.01193
1.01365
0.984648
1.01499
1.02964
1.03213
1.03256
1.03397
1.03665
1.03958
1.04242
1.04498
1.04686
1.04733
1.04598
1.04278
1.03792
1.03186
1.02526
1.0187
1.01258
1.00716
1.00253
0.99873
0.99568
0.993281
0.991383
0.989884
0.988632
0.987565
0.986677
0.986053
0.985761
0.985996
0.986178
0.986178
0.985997
0.985763
0.986054
0.98668
0.987568
0.988635
0.989889
0.991391
0.993292
0.995696
0.998753
1.00256
1.0072
1.01263
1.01876
1.02531
1.0319
1.03792
1.04274
1.0459
1.0472
1.04676
1.04501
1.04257
1.0399
1.03742
1.03558
1.03515
1.03648
1.04065
1.05344
1.05547
1.06185
1.06221
1.06375
1.06516
1.06685
1.06856
1.07032
1.07191
1.07337
1.07489
1.07627
1.07781
1.07935
1.08091
1.0822
1.08357
1.08506
1.08624
1.0874
1.08903
1.09057
1.09098
1.09129
1.09213
1.09328
1.09467
1.09539
1.09593
1.09701
1.0975
1.09752
1.09783
1.09803
1.09781
1.09757
1.09747
1.09708
1.09666
1.09624
1.09544
1.0946
1.0938
1.09275
1.09168
1.09045
1.08889
1.08747
1.08601
1.08445
1.08266
1.08046
1.07829
1.07602
1.07357
1.07117
1.0687
1.06591
1.06254
1.05901
1.05536
1.0515
1.04741
1.043
1.03856
1.03395
1.02911
1.02389
1.0186
1.0134
1.0072
0.997058
0.988837
0.985733
0.981691
0.973584
0.966191
0.957787
0.949637
0.941586
0.933562
0.924157
0.915614
0.907068
0.899379
0.890239
0.883253
0.875939
0.871455
0.864552
0.863289
0.858957
0.864435
0.864336
0.868754
0.876071
0.877715
0.88596
0.890995
0.8994
0.90543
0.911846
0.917478
0.92517
0.931597
0.938052
0.943871
0.949156
0.954182
0.960006
0.966223
0.971702
0.977075
0.982223
0.987247
0.992445
0.998352
1.00427
1.01022
1.01625
1.02238
1.02888
1.03554
1.04243
1.04955
1.05706
1.06516
1.07321
1.08066
1.08829
1.09663
1.10557
1.11518
1.12565
1.13684
1.14824
1.1599
1.17278
1.18733
1.20331
1.2198
1.23731
1.2574
1.27913
1.30083
1.32678
1.35234
1.37884
1.40038
1.40788
1.37562
1.3361
1.23738
1.1485
1.02024
0.930431
0.856002
0.819712
0.765788
0.711707
0.670633
0.644595
0.616573
0.603017
0.595408
0.588975
0.586438
0.583578
0.584931
0.58733
0.588832
0.590545
0.592009
0.595027
0.59867
0.601561
0.604408
0.607156
0.608479
0.609589
0.610343
0.610414
0.611003
0.612245
0.613595
0.613352
0.612949
0.611319
0.606459
0.603185
0.602752
0.602447
0.602589
0.603312
0.603579
0.603876
0.604321
0.605287
0.604455
0.598821
0.595193
0.590689
0.587666
0.586473
0.58576
0.584399
0.583632
0.581409
0.580214
0.577368
0.57603
0.572461
0.571524
0.56893
0.569277
0.563401
0.568056
0.568217
0.559645
0.561465
0.559166
0.566868
0.608941
0.690491
0.754715
0.781574
0.791716
0.797641
0.802109
0.807143
0.812078
0.817691
0.823378
0.829558
0.835897
0.842371
0.849986
0.860048
0.865692
0.869022
0.875057
0.884172
0.891116
0.895078
0.899784
0.906415
0.912984
0.918419
0.923756
0.929051
0.93428
0.939313
0.944237
0.948995
0.953335
0.957444
0.961375
0.965131
0.968689
0.972025
0.975165
0.97809
0.980787
0.983291
0.985617
0.987747
0.989694
0.991443
0.993007
0.994413
0.995682
0.996819
0.997851
0.998771
0.999581
1.00032
1.001
1.00165
1.00228
1.0029
1.0035
1.0041
1.00468
1.00525
1.00579
1.00631
1.00681
1.00729
1.00773
1.00815
1.00853
1.00889
1.00923
1.00959
1.01
1.01034
1.01069
1.011
1.01116
1.01107
1.01069
1.00918
1.00958
1.0112
1.01949
1.02444
1.02864
1.03098
1.03356
1.0362
1.03924
1.0424
1.04496
1.04686
1.04736
1.046
1.04278
1.0379
1.03183
1.02523
1.01867
1.01256
1.00713
1.00251
0.998718
0.995671
0.993275
0.991379
0.989881
0.98863
0.987564
0.986676
0.986052
0.985761
0.985995
0.986178
0.986179
0.985997
0.985763
0.986055
0.98668
0.98757
0.988638
0.989892
0.991396
0.993298
0.995705
0.998766
1.00258
1.00722
1.01266
1.01879
1.02534
1.03192
1.03793
1.04273
1.04587
1.04716
1.04675
1.04508
1.04278
1.04031
1.03823
1.03701
1.03741
1.03996
1.04475
1.05171
1.05487
1.05939
1.06172
1.06322
1.06483
1.06657
1.06829
1.07
1.07159
1.07309
1.07462
1.07605
1.0776
1.07909
1.08063
1.08192
1.08333
1.08477
1.08592
1.08715
1.08868
1.09011
1.09069
1.09113
1.09198
1.09309
1.09438
1.09515
1.09567
1.09668
1.09721
1.09732
1.09757
1.09775
1.09759
1.09737
1.09725
1.09689
1.09648
1.09601
1.09524
1.09444
1.09362
1.09257
1.09151
1.09027
1.08874
1.08733
1.08588
1.0843
1.08249
1.08031
1.07817
1.0759
1.07345
1.07106
1.06858
1.06578
1.06241
1.05891
1.05527
1.05142
1.04733
1.04292
1.0385
1.03388
1.02905
1.02383
1.01856
1.01339
1.00711
0.997038
0.988858
0.98582
0.981689
0.973531
0.966185
0.957818
0.949692
0.941648
0.93361
0.924183
0.915641
0.907109
0.899475
0.890472
0.883585
0.87645
0.87199
0.865138
0.863885
0.859778
0.864865
0.865048
0.869385
0.876509
0.878441
0.886354
0.891615
0.899721
0.905845
0.912168
0.91788
0.925388
0.93183
0.938202
0.944021
0.94931
0.954389
0.960211
0.96643
0.971896
0.977292
0.982465
0.987524
0.992769
0.998657
1.00466
1.01056
1.01656
1.02282
1.02935
1.03604
1.04298
1.05016
1.05776
1.06582
1.07382
1.08142
1.08924
1.09771
1.10679
1.11657
1.12714
1.13834
1.14982
1.16182
1.17513
1.18986
1.20575
1.22227
1.24011
1.26029
1.28163
1.30683
1.33288
1.35652
1.37639
1.39557
1.40133
1.38257
1.34926
1.26359
1.17604
1.06036
0.965718
0.888969
0.842468
0.787659
0.73349
0.689596
0.660346
0.629725
0.613213
0.603741
0.596097
0.592229
0.588599
0.588728
0.590674
0.592038
0.593438
0.59458
0.597116
0.600488
0.603297
0.605989
0.608621
0.609931
0.610912
0.611579
0.611574
0.611994
0.613091
0.614377
0.614169
0.613726
0.612155
0.607391
0.603919
0.603298
0.602952
0.603038
0.603716
0.603986
0.604266
0.60469
0.605653
0.604932
0.599438
0.595723
0.591217
0.5881
0.586831
0.586106
0.584758
0.58398
0.581791
0.580574
0.577767
0.576401
0.572881
0.571874
0.569319
0.569631
0.563875
0.568264
0.568629
0.560236
0.561776
0.559565
0.566962
0.608815
0.690439
0.755042
0.781841
0.791858
0.797697
0.802124
0.80713
0.812067
0.817692
0.823378
0.829579
0.835922
0.842342
0.849926
0.8599
0.865664
0.869012
0.875033
0.883992
0.891024
0.895051
0.899749
0.906308
0.912884
0.918349
0.923686
0.928977
0.934209
0.93924
0.944157
0.948917
0.953267
0.957381
0.961314
0.965073
0.968635
0.971973
0.975115
0.978041
0.980742
0.983249
0.985574
0.987703
0.98965
0.991401
0.992968
0.994377
0.995646
0.996782
0.997813
0.998734
0.999547
1.00028
1.00097
1.00163
1.00226
1.00288
1.00348
1.00408
1.00466
1.00522
1.00577
1.00629
1.00679
1.00726
1.0077
1.00811
1.00849
1.00885
1.00917
1.00949
1.00988
1.01025
1.01061
1.011
1.01147
1.01181
1.01155
1.01178
1.01354
1.01583
1.02116
1.02502
1.02845
1.03081
1.03301
1.03625
1.0394
1.04235
1.04506
1.04692
1.0474
1.04603
1.0428
1.0379
1.03181
1.02519
1.01864
1.01253
1.00711
1.0025
0.998705
0.995662
0.993268
0.991375
0.989878
0.988627
0.987562
0.986675
0.986051
0.98576
0.985995
0.986177
0.986179
0.985998
0.985764
0.986056
0.986682
0.987571
0.98864
0.989895
0.9914
0.993304
0.995713
0.998777
1.00259
1.00724
1.01269
1.01882
1.02537
1.03193
1.03793
1.04271
1.04582
1.0471
1.04673
1.04516
1.04301
1.04081
1.03917
1.03859
1.03958
1.0422
1.04616
1.05107
1.05452
1.05828
1.06077
1.06268
1.06445
1.06621
1.06792
1.06963
1.07125
1.07277
1.07432
1.07577
1.07729
1.07876
1.08029
1.08161
1.08299
1.08442
1.08563
1.08687
1.08825
1.08961
1.09038
1.09092
1.0918
1.09284
1.09402
1.09484
1.09541
1.09631
1.09689
1.09706
1.09729
1.09745
1.09735
1.09718
1.09699
1.09666
1.09628
1.09578
1.09504
1.09427
1.09344
1.09241
1.09135
1.09011
1.08862
1.08722
1.08575
1.08417
1.08237
1.08022
1.07808
1.07581
1.07338
1.07098
1.06849
1.06569
1.06235
1.05885
1.05521
1.05136
1.04728
1.0429
1.03849
1.03387
1.02905
1.02385
1.01859
1.01335
1.00705
0.997321
0.989241
0.985883
0.981558
0.97364
0.966371
0.958057
0.949978
0.941968
0.933969
0.92471
0.916273
0.907775
0.900104
0.891077
0.884181
0.877071
0.872627
0.8659
0.86461
0.860713
0.865482
0.865847
0.870146
0.877005
0.879251
0.8869
0.892272
0.900169
0.9063
0.912594
0.918407
0.92581
0.932294
0.938669
0.944538
0.94989
0.955057
0.960844
0.966941
0.972479
0.977883
0.983089
0.988211
0.993524
0.999401
1.00534
1.01135
1.01743
1.02368
1.03023
1.03697
1.04394
1.05117
1.05879
1.06682
1.07482
1.08258
1.09055
1.09911
1.10826
1.1181
1.12869
1.13995
1.15159
1.16382
1.17722
1.19193
1.20777
1.22443
1.24239
1.2623
1.28343
1.30807
1.33172
1.35437
1.37316
1.38981
1.39412
1.37682
1.34437
1.27033
1.18912
1.08322
0.992349
0.91511
0.862038
0.807503
0.753359
0.707511
0.675805
0.643247
0.623844
0.612421
0.603525
0.598332
0.593761
0.592738
0.594072
0.595237
0.596427
0.597411
0.599568
0.602616
0.605237
0.607736
0.610233
0.611516
0.612383
0.612955
0.612873
0.613132
0.614081
0.615299
0.615128
0.61465
0.613126
0.608492
0.604849
0.604003
0.603586
0.603599
0.604213
0.604476
0.604733
0.605132
0.606066
0.605447
0.600139
0.596333
0.591832
0.588613
0.587237
0.586479
0.585139
0.584332
0.582185
0.580932
0.578175
0.576765
0.573313
0.572224
0.569705
0.569967
0.564362
0.568405
0.568989
0.560829
0.562034
0.559904
0.566945
0.608611
0.690907
0.756222
0.782479
0.792273
0.798059
0.802525
0.80753
0.812458
0.818054
0.823716
0.82989
0.836263
0.842721
0.850255
0.860005
0.865857
0.869345
0.875414
0.884172
0.891132
0.895282
0.900029
0.90653
0.913025
0.91849
0.92382
0.929097
0.934312
0.93933
0.944221
0.948963
0.953312
0.957425
0.961353
0.965104
0.968659
0.971994
0.97513
0.978054
0.980755
0.98326
0.985582
0.987705
0.989648
0.991399
0.99297
0.99438
0.995646
0.996779
0.997808
0.998733
0.999554
1.0003
1.00099
1.00165
1.00228
1.00291
1.00351
1.00411
1.00469
1.00525
1.0058
1.00632
1.00681
1.00728
1.00772
1.00813
1.00851
1.00887
1.0092
1.0095
1.00984
1.01024
1.01066
1.0111
1.01159
1.01229
1.01325
1.01458
1.01576
1.01843
1.02155
1.02474
1.02759
1.03018
1.03295
1.03605
1.0394
1.04257
1.04515
1.04698
1.04745
1.04605
1.0428
1.03788
1.03178
1.02516
1.01861
1.0125
1.00709
1.00248
0.998694
0.995654
0.993263
0.991371
0.989875
0.988625
0.987561
0.986674
0.98605
0.985759
0.985995
0.986177
0.98618
0.985998
0.985765
0.986057
0.986682
0.987573
0.988642
0.989898
0.991404
0.99331
0.995721
0.998789
1.00261
1.00726
1.01271
1.01885
1.0254
1.03195
1.03793
1.04269
1.04578
1.04707
1.04673
1.04526
1.04328
1.04137
1.04016
1.04012
1.04152
1.04412
1.04749
1.05129
1.05438
1.05773
1.06022
1.06226
1.06411
1.06592
1.06763
1.06932
1.07094
1.07247
1.07402
1.07548
1.07701
1.07846
1.07997
1.08131
1.08269
1.08409
1.08531
1.08656
1.08787
1.08918
1.09004
1.09068
1.09157
1.09259
1.0937
1.09454
1.09512
1.09596
1.09657
1.09679
1.09701
1.09716
1.09709
1.09694
1.09676
1.09644
1.09605
1.09554
1.09483
1.09407
1.09323
1.09221
1.09115
1.0899
1.08844
1.08704
1.08557
1.08399
1.08217
1.08004
1.07792
1.07565
1.07323
1.07083
1.06833
1.06551
1.06219
1.05872
1.05509
1.05125
1.04716
1.04279
1.03838
1.03376
1.02894
1.02375
1.0185
1.01327
1.00694
0.997335
0.989295
0.985993
0.981598
0.973617
0.966382
0.958103
0.950061
0.942074
0.934079
0.924829
0.916445
0.908008
0.900394
0.891582
0.884782
0.877715
0.873256
0.866654
0.865314
0.861628
0.866097
0.866629
0.870877
0.877532
0.880017
0.887441
0.892915
0.900648
0.90679
0.913046
0.918934
0.926218
0.932681
0.938972
0.944825
0.950192
0.955411
0.961177
0.967266
0.972824
0.978252
0.983493
0.988673
0.994037
0.999906
1.00589
1.0119
1.018
1.02431
1.03089
1.03766
1.04467
1.05195
1.05961
1.06762
1.07564
1.08352
1.09163
1.10029
1.10956
1.11953
1.13021
1.14149
1.15321
1.16562
1.17918
1.19388
1.2096
1.22618
1.24419
1.26371
1.28456
1.30828
1.33035
1.35125
1.36881
1.38338
1.3865
1.37009
1.33954
1.27559
1.20073
1.10319
1.01638
0.938754
0.881401
0.825941
0.772183
0.72477
0.690548
0.656577
0.634722
0.621259
0.610962
0.60444
0.598998
0.596939
0.597574
0.598437
0.59931
0.600026
0.60183
0.60466
0.607211
0.609569
0.611916
0.613164
0.613926
0.6144
0.614241
0.614339
0.615131
0.616269
0.616134
0.615624
0.614134
0.60963
0.605829
0.604746
0.60426
0.604207
0.60476
0.605021
0.605258
0.605631
0.606544
0.606029
0.600916
0.597018
0.592523
0.589205
0.587724
0.58694
0.585616
0.584789
0.582689
0.581405
0.578701
0.577251
0.573871
0.572697
0.570225
0.570427
0.565007
0.568684
0.569491
0.5616
0.562437
0.560404
0.567031
0.608361
0.691142
0.757131
0.783027
0.79256
0.798171
0.802535
0.807491
0.812408
0.818011
0.823678
0.829892
0.836283
0.84272
0.850208
0.859847
0.865795
0.86933
0.875384
0.883995
0.890988
0.895216
0.899963
0.906411
0.912895
0.918386
0.923723
0.929002
0.934221
0.939244
0.944138
0.948882
0.95324
0.957359
0.961292
0.965049
0.968607
0.971944
0.975082
0.978008
0.980712
0.98322
0.985543
0.98767
0.989614
0.991369
0.992944
0.994358
0.995628
0.996763
0.997795
0.998723
0.999549
1.0003
1.00099
1.00166
1.00229
1.00292
1.00353
1.00412
1.0047
1.00526
1.0058
1.00632
1.00682
1.00728
1.00773
1.00814
1.00852
1.00888
1.00922
1.00954
1.00988
1.01029
1.01078
1.01135
1.01207
1.01306
1.01419
1.01556
1.01724
1.0197
1.02219
1.02459
1.02772
1.0301
1.03287
1.03618
1.03932
1.04255
1.04524
1.04711
1.04749
1.04608
1.04281
1.03787
1.03176
1.02513
1.01858
1.01248
1.00707
1.00246
0.998682
0.995646
0.993257
0.991367
0.989872
0.988624
0.987559
0.986672
0.986049
0.985759
0.985994
0.986177
0.98618
0.985999
0.985765
0.986058
0.986684
0.987574
0.988644
0.989901
0.991408
0.993316
0.99573
0.9988
1.00263
1.00728
1.01274
1.01888
1.02542
1.03196
1.03792
1.04267
1.04574
1.04702
1.04674
1.04538
1.04359
1.04198
1.04119
1.04157
1.04312
1.04553
1.04845
1.05164
1.05449
1.05742
1.05978
1.0619
1.06377
1.06559
1.0673
1.06899
1.0706
1.07214
1.07369
1.07516
1.07667
1.07811
1.07961
1.08096
1.08233
1.08372
1.08495
1.08621
1.08747
1.08873
1.08966
1.09038
1.09128
1.09227
1.09332
1.09418
1.09479
1.09557
1.09619
1.09646
1.09668
1.09682
1.09679
1.09666
1.09646
1.09617
1.09579
1.09528
1.09459
1.09385
1.09301
1.09201
1.09096
1.08971
1.08828
1.08689
1.08542
1.08383
1.08202
1.07991
1.0778
1.07553
1.07312
1.07072
1.06821
1.06539
1.06209
1.05863
1.055
1.05116
1.04709
1.04274
1.03834
1.03374
1.02893
1.02376
1.01851
1.01323
1.00691
0.997607
0.989649
0.986068
0.98153
0.973781
0.966637
0.95841
0.950401
0.942418
0.93444
0.925275
0.916938
0.908539
0.900974
0.892203
0.885401
0.878363
0.873887
0.867439
0.866029
0.86256
0.866731
0.86742
0.871606
0.87805
0.880783
0.887982
0.893551
0.901141
0.907303
0.913549
0.919507
0.926689
0.933148
0.939412
0.945282
0.950681
0.955953
0.961692
0.967745
0.97333
0.978771
0.984035
0.989264
0.994668
1.00053
1.00651
1.01257
1.01871
1.02505
1.03166
1.03848
1.04553
1.05284
1.06052
1.06852
1.07656
1.08455
1.0928
1.10157
1.11093
1.12096
1.13167
1.14299
1.15483
1.16735
1.18092
1.19549
1.21114
1.22764
1.24547
1.2646
1.28502
1.30729
1.32804
1.34767
1.36397
1.37655
1.37845
1.36279
1.33384
1.277
1.20762
1.11859
1.03591
0.959995
0.899749
0.843817
0.789952
0.741676
0.705177
0.669943
0.645832
0.630418
0.618701
0.610886
0.604618
0.601582
0.601453
0.601944
0.602479
0.602884
0.604265
0.606745
0.609154
0.61141
0.613664
0.614907
0.615582
0.615955
0.615713
0.615648
0.616262
0.617292
0.617173
0.616619
0.615147
0.610779
0.60684
0.605518
0.604949
0.604828
0.605318
0.605577
0.605798
0.606147
0.607031
0.606614
0.601718
0.597729
0.593233
0.589809
0.588205
0.587379
0.586066
0.58521
0.583157
0.581834
0.579185
0.577687
0.574386
0.573122
0.570696
0.570831
0.565615
0.568894
0.569915
0.562336
0.562781
0.560842
0.567039
0.607909
0.69154
0.75868
0.784
0.793171
0.798631
0.802968
0.807916
0.812837
0.818424
0.824079
0.830259
0.836653
0.843133
0.850569
0.860009
0.866026
0.869703
0.875798
0.884255
0.891192
0.895532
0.900328
0.906735
0.913154
0.918643
0.923971
0.929233
0.934433
0.939437
0.944298
0.949012
0.953358
0.957466
0.961384
0.965122
0.968664
0.971988
0.975113
0.978029
0.980726
0.983227
0.985543
0.987662
0.9896
0.991352
0.992929
0.994346
0.995616
0.996751
0.997782
0.998713
0.999549
1.00031
1.00101
1.00168
1.00232
1.00295
1.00356
1.00416
1.00474
1.0053
1.00583
1.00635
1.00684
1.00731
1.00775
1.00816
1.00855
1.00893
1.00929
1.00962
1.00997
1.01041
1.01098
1.01169
1.01261
1.01374
1.01515
1.0165
1.0183
1.02025
1.0226
1.0251
1.02718
1.03013
1.03303
1.036
1.03942
1.04248
1.04534
1.0471
1.0475
1.04609
1.0428
1.03786
1.03173
1.0251
1.01855
1.01245
1.00705
1.00245
0.99867
0.995637
0.993251
0.991363
0.98987
0.988621
0.987558
0.986671
0.986048
0.985758
0.985994
0.986176
0.98618
0.985999
0.985766
0.986058
0.986685
0.987575
0.988646
0.989904
0.991412
0.993322
0.995739
0.998813
1.00264
1.0073
1.01276
1.01891
1.02545
1.03198
1.03792
1.04264
1.0457
1.04699
1.04675
1.04551
1.04392
1.0426
1.04217
1.04285
1.04447
1.04671
1.04932
1.0521
1.05468
1.05733
1.05956
1.06166
1.06353
1.06535
1.06704
1.0687
1.0703
1.07184
1.07338
1.07485
1.07635
1.07777
1.07925
1.0806
1.08197
1.08333
1.08457
1.08583
1.08706
1.08828
1.08925
1.09004
1.09095
1.09194
1.09294
1.0938
1.09444
1.09518
1.09581
1.09611
1.09633
1.09648
1.09646
1.09636
1.09617
1.09588
1.0955
1.09499
1.09432
1.09359
1.09275
1.09176
1.09071
1.08946
1.08805
1.08667
1.08519
1.0836
1.08178
1.0797
1.07759
1.07533
1.07293
1.07054
1.06801
1.06518
1.06191
1.05848
1.05487
1.05105
1.04699
1.04266
1.03827
1.03367
1.02887
1.02371
1.01848
1.01319
1.00682
0.997678
0.989806
0.986203
0.981541
0.973789
0.966678
0.958499
0.95054
0.942601
0.934666
0.92559
0.917339
0.908988
0.90145
0.892757
0.886009
0.879038
0.874549
0.868256
0.866776
0.863519
0.867406
0.868265
0.872376
0.878641
0.881584
0.888575
0.894218
0.901641
0.907821
0.914061
0.920072
0.927131
0.93357
0.939805
0.945687
0.951112
0.956431
0.96216
0.968181
0.973765
0.979222
0.984515
0.989801
0.995255
1.00113
1.00712
1.01321
1.01938
1.02576
1.03239
1.03923
1.04632
1.05368
1.06138
1.06939
1.07747
1.08557
1.09394
1.1028
1.11225
1.12236
1.13311
1.14442
1.15628
1.16893
1.18247
1.19699
1.21246
1.22882
1.2464
1.26511
1.28487
1.30577
1.32539
1.34368
1.35862
1.36944
1.37019
1.35518
1.3278
1.27649
1.21261
1.13117
1.05255
0.978579
0.917121
0.860612
0.806844
0.758057
0.71959
0.683288
0.657116
0.639738
0.626608
0.617515
0.610394
0.606405
0.605464
0.605539
0.605768
0.605894
0.606869
0.608969
0.611178
0.613272
0.615388
0.616624
0.617241
0.617529
0.617212
0.616982
0.617402
0.618299
0.618181
0.617571
0.6161
0.611859
0.607785
0.606214
0.605559
0.60538
0.605811
0.606067
0.606273
0.606596
0.607448
0.607124
0.602446
0.598377
0.593878
0.590357
0.588638
0.587775
0.586479
0.585603
0.583601
0.582249
0.57966
0.578124
0.574905
0.573556
0.571178
0.571243
0.566249
0.569122
0.570334
0.563111
0.563147
0.561289
0.567031
0.60725
0.691806
0.760297
0.784891
0.793583
0.798928
0.803229
0.808138
0.813032
0.818595
0.82422
0.830389
0.836775
0.843218
0.850565
0.85988
0.865994
0.869744
0.875829
0.884109
0.891037
0.895472
0.900293
0.906654
0.913037
0.918528
0.923858
0.929124
0.934325
0.939329
0.944186
0.948901
0.953256
0.957371
0.961298
0.965043
0.968592
0.971924
0.975054
0.977976
0.98068
0.983185
0.985506
0.987628
0.989568
0.991323
0.992904
0.994322
0.995595
0.996734
0.997767
0.998703
0.999547
1.00031
1.00102
1.0017
1.00234
1.00298
1.00359
1.00419
1.00477
1.00533
1.00587
1.00638
1.00687
1.00734
1.00778
1.0082
1.0086
1.009
1.00939
1.00976
1.01017
1.01068
1.01133
1.01218
1.01323
1.01446
1.01582
1.01735
1.01907
1.0211
1.02316
1.02553
1.02811
1.03026
1.0328
1.03625
1.03921
1.04263
1.04521
1.04726
1.04761
1.04611
1.0428
1.03784
1.0317
1.02506
1.01851
1.01242
1.00703
1.00243
0.998658
0.995628
0.993244
0.991358
0.989866
0.98862
0.987556
0.98667
0.986047
0.985757
0.985993
0.986176
0.986181
0.986
0.985767
0.98606
0.986686
0.987577
0.988648
0.989907
0.991416
0.993328
0.995748
0.998825
1.00266
1.00732
1.01279
1.01894
1.02548
1.03199
1.03791
1.04262
1.04566
1.04695
1.04678
1.04567
1.04427
1.04325
1.04313
1.04401
1.04565
1.04775
1.0501
1.05257
1.05493
1.0573
1.05942
1.06146
1.06329
1.06508
1.06675
1.0684
1.06998
1.07151
1.07303
1.07449
1.07598
1.07739
1.07886
1.0802
1.08156
1.08291
1.08416
1.08541
1.08661
1.0878
1.08881
1.08965
1.09057
1.09154
1.0925
1.09337
1.09402
1.09473
1.09535
1.09568
1.09593
1.09608
1.09608
1.09599
1.09581
1.09554
1.09517
1.09466
1.09402
1.09331
1.09247
1.0915
1.09046
1.08922
1.08784
1.08647
1.08499
1.0834
1.08159
1.07953
1.07744
1.07518
1.0728
1.0704
1.06787
1.06504
1.06178
1.05837
1.05476
1.05095
1.04691
1.0426
1.03823
1.03364
1.02885
1.02372
1.01849
1.01317
1.00681
0.997906
0.990106
0.986319
0.981561
0.973926
0.966848
0.958729
0.950824
0.942916
0.935017
0.926023
0.917815
0.909485
0.901979
0.893392
0.886689
0.879777
0.875252
0.869111
0.867545
0.864481
0.868117
0.869069
0.873143
0.879207
0.882331
0.889162
0.894851
0.902185
0.908376
0.914591
0.920638
0.927582
0.934022
0.940225
0.946117
0.951565
0.956933
0.962649
0.968641
0.974242
0.97972
0.985039
0.990367
0.995852
1.00172
1.00772
1.01383
1.02004
1.02646
1.03312
1.03999
1.04712
1.05452
1.06226
1.07028
1.07839
1.08659
1.09507
1.10403
1.11354
1.12368
1.13444
1.14578
1.15766
1.17028
1.1838
1.1982
1.21353
1.22968
1.24695
1.26512
1.2841
1.3039
1.32235
1.33932
1.35292
1.36217
1.36187
1.3474
1.32141
1.27492
1.21558
1.14098
1.06628
0.994669
0.932965
0.876397
0.822818
0.773738
0.733695
0.696532
0.668588
0.64931
0.634748
0.624397
0.616387
0.611448
0.609648
0.609233
0.609143
0.609001
0.609601
0.611328
0.613319
0.615241
0.617198
0.61839
0.618935
0.619132
0.618739
0.618356
0.618589
0.619356
0.619242
0.61859
0.617125
0.61302
0.608825
0.606984
0.606212
0.605959
0.606322
0.60657
0.606758
0.607055
0.607868
0.607626
0.603175
0.599031
0.594519
0.590897
0.589049
0.588137
0.586851
0.585948
0.583992
0.582608
0.580077
0.578501
0.575364
0.573934
0.571604
0.571607
0.56683
0.569313
0.570713
0.563838
0.563502
0.561718
0.567034
0.606531
0.692047
0.762153
0.786191
0.794276
0.799397
0.803652
0.808545
0.813434
0.818984
0.824605
0.830769
0.83716
0.843646
0.850959
0.860095
0.866245
0.870126
0.876221
0.884361
0.891241
0.895772
0.90062
0.906926
0.913253
0.91875
0.924071
0.929317
0.934496
0.939485
0.944314
0.948997
0.95334
0.957444
0.961354
0.965082
0.968614
0.971931
0.975048
0.977958
0.980653
0.983151
0.985463
0.987577
0.989512
0.991265
0.992847
0.99427
0.995547
0.996691
0.997728
0.99867
0.999522
1.0003
1.00101
1.0017
1.00235
1.00299
1.00361
1.00421
1.00479
1.00535
1.00589
1.00641
1.0069
1.00737
1.00782
1.00825
1.00867
1.00909
1.00952
1.00993
1.0104
1.01097
1.01169
1.0126
1.01369
1.01496
1.0164
1.01803
1.01979
1.02175
1.0238
1.0259
1.02831
1.03083
1.03349
1.03582
1.03941
1.04237
1.04535
1.04718
1.04759
1.04613
1.04279
1.03782
1.03168
1.02502
1.01848
1.01239
1.007
1.00241
0.998645
0.995619
0.993238
0.991354
0.989864
0.988617
0.987554
0.986669
0.986046
0.985756
0.985993
0.986176
0.986181
0.986
0.985767
0.98606
0.986687
0.987579
0.98865
0.98991
0.991421
0.993334
0.995757
0.998838
1.00268
1.00735
1.01282
1.01897
1.0255
1.032
1.0379
1.04259
1.04562
1.04691
1.04681
1.04583
1.04465
1.0439
1.04404
1.04507
1.0467
1.04869
1.05085
1.05306
1.05523
1.05741
1.05941
1.06137
1.06316
1.06491
1.06654
1.06816
1.06971
1.07123
1.07273
1.07418
1.07565
1.07705
1.07848
1.07982
1.08118
1.0825
1.08375
1.085
1.08618
1.08735
1.08838
1.08927
1.0902
1.09116
1.09209
1.09296
1.09363
1.09433
1.09494
1.0953
1.09555
1.09571
1.09573
1.09566
1.09549
1.09522
1.09485
1.09435
1.09373
1.09302
1.09218
1.09122
1.09018
1.08895
1.0876
1.08623
1.08475
1.08316
1.08135
1.07931
1.07723
1.07498
1.07261
1.07022
1.06767
1.06484
1.06161
1.05822
1.05462
1.05083
1.04679
1.0425
1.03814
1.03357
1.02879
1.02368
1.01846
1.01311
1.00672
0.998024
0.990325
0.986447
0.981577
0.973994
0.966973
0.95892
0.951072
0.943197
0.935331
0.926405
0.918245
0.909962
0.902507
0.894048
0.887335
0.880459
0.875906
0.869919
0.868278
0.865412
0.868799
0.869876
0.873892
0.879776
0.883082
0.889743
0.895483
0.902715
0.908935
0.915143
0.921216
0.928061
0.934483
0.940661
0.946561
0.95203
0.957435
0.963141
0.9691
0.974698
0.980188
0.985531
0.990904
0.996426
1.00231
1.00832
1.01446
1.02071
1.02717
1.03386
1.04077
1.04793
1.05537
1.06314
1.07117
1.07933
1.0876
1.09616
1.10517
1.11475
1.12493
1.13569
1.14703
1.15894
1.17156
1.18499
1.19927
1.21438
1.23028
1.24719
1.2647
1.28302
1.30167
1.31898
1.33469
1.347
1.35484
1.35357
1.33965
1.31492
1.27258
1.21743
1.1486
1.07796
1.00875
0.947491
0.891101
0.837863
0.78872
0.747435
0.709542
0.680061
0.659003
0.643025
0.631445
0.622529
0.616654
0.613976
0.613006
0.612571
0.612158
0.6124
0.613757
0.615525
0.617286
0.619089
0.620217
0.62068
0.620776
0.620304
0.619777
0.619828
0.620464
0.620353
0.619672
0.618216
0.614252
0.609956
0.607845
0.606935
0.6066
0.606885
0.607115
0.607286
0.607555
0.608326
0.608159
0.603944
0.59974
0.595211
0.591487
0.589504
0.588533
0.587251
0.586318
0.584405
0.582988
0.580509
0.578891
0.575831
0.574319
0.572028
0.571959
0.567405
0.569495
0.571041
0.564543
0.563838
0.562106
0.566974
0.605703
0.692229
0.764029
0.787517
0.794933
0.799815
0.803981
0.808833
0.813714
0.819256
0.824873
0.831032
0.837411
0.843875
0.851123
0.860131
0.866349
0.870326
0.876403
0.884383
0.891251
0.895875
0.900744
0.906996
0.913281
0.918777
0.924096
0.929337
0.934508
0.939488
0.944304
0.948977
0.953317
0.957418
0.961325
0.965047
0.968576
0.971891
0.975005
0.977913
0.980608
0.983106
0.98542
0.987537
0.989474
0.991228
0.992813
0.994237
0.995517
0.996664
0.997705
0.998652
0.99951
1.00029
1.00102
1.00171
1.00237
1.00301
1.00363
1.00423
1.00482
1.00538
1.00592
1.00644
1.00694
1.00741
1.00787
1.00831
1.00874
1.00919
1.00965
1.01012
1.01065
1.01129
1.01208
1.01305
1.01418
1.01548
1.01695
1.01859
1.02044
1.02236
1.0244
1.02653
1.02879
1.03118
1.03369
1.0366
1.03895
1.04255
1.04516
1.04705
1.04766
1.04613
1.04279
1.0378
1.03165
1.02499
1.01844
1.01236
1.00698
1.0024
0.998632
0.99561
0.993232
0.991349
0.98986
0.988615
0.987553
0.986668
0.986046
0.985756
0.985992
0.986175
0.986181
0.986001
0.985768
0.986062
0.986689
0.98758
0.988652
0.989913
0.991425
0.993341
0.995766
0.998851
1.00269
1.00737
1.01284
1.019
1.02553
1.03202
1.03789
1.04256
1.04557
1.04688
1.04684
1.04601
1.04504
1.04454
1.0449
1.04604
1.04766
1.04954
1.05153
1.05354
1.05554
1.05754
1.05944
1.0613
1.06303
1.06473
1.06633
1.06791
1.06943
1.07093
1.0724
1.07384
1.07528
1.07667
1.07808
1.07941
1.08075
1.08206
1.0833
1.08454
1.08571
1.08686
1.0879
1.08882
1.08976
1.09071
1.09162
1.09248
1.09316
1.09384
1.09444
1.09482
1.09509
1.09525
1.0953
1.09524
1.09508
1.09483
1.09447
1.09399
1.09338
1.09269
1.09186
1.09092
1.08989
1.08867
1.08734
1.08598
1.08451
1.08291
1.08112
1.07911
1.07704
1.0748
1.07245
1.07005
1.0675
1.06467
1.06146
1.05808
1.05449
1.05071
1.04669
1.04243
1.03808
1.03352
1.02875
1.02366
1.01846
1.01309
1.0067
0.99821
0.990595
0.986572
0.981609
0.97412
0.967131
0.959149
0.951359
0.943512
0.935666
0.926811
0.918708
0.910488
0.903077
0.894676
0.887965
0.881156
0.876589
0.870754
0.869046
0.86637
0.869516
0.870723
0.874672
0.880388
0.883865
0.89036
0.896145
0.903256
0.909499
0.915702
0.92179
0.928529
0.93493
0.94109
0.946993
0.952481
0.95792
0.96362
0.969548
0.975152
0.980664
0.986038
0.991458
0.997022
1.00292
1.00895
1.01512
1.02141
1.0279
1.03461
1.04156
1.04875
1.05623
1.06402
1.07205