/*--------------------------------*- C++ -*----------------------------------*\
| =========                 |                                                 |
| \\      /  F ield         | OpenFOAM: The Open Source CFD Toolbox           |
|  \\    /   O peration     | Version:  v2006                                 |
|   \\  /    A nd           | Website:  www.openfoam.com                      |
|    \\/     M anipulation  |                                                 |
\*---------------------------------------------------------------------------*/
FoamFile
{
    version     2.0;
    format      ascii;
    class       volScalarField;
    location    "185";
    object      pPrime2Mean;
}
// * * * * * * * * * * * * * * * * * * * * * * * * * * * * * * * * * * * * * //

dimensions      [2 -2 -4 0 0 0 0];


internalField   nonuniform List<scalar> 
93840
(
7.8431e-06
8.06709e-06
8.35859e-06
8.11328e-06
7.56434e-06
6.94148e-06
6.37266e-06
5.90256e-06
5.51098e-06
5.17977e-06
4.88619e-06
4.6319e-06
4.34719e-06
4.08997e-06
3.81809e-06
3.57394e-06
3.38979e-06
3.37829e-06
3.4301e-06
3.99965e-06
4.65959e-06
7.79318e-06
1.01503e-05
1.2457e-05
1.55794e-05
1.90824e-05
2.18333e-05
2.45039e-05
2.50061e-05
2.41856e-05
2.29393e-05
1.93457e-05
1.96626e-05
1.84988e-05
1.77503e-05
1.67497e-05
1.6133e-05
1.54022e-05
1.47224e-05
1.40828e-05
1.35287e-05
1.30837e-05
1.26148e-05
1.22149e-05
1.17999e-05
1.13984e-05
1.10092e-05
1.06783e-05
1.03765e-05
1.00205e-05
9.749e-06
9.53275e-06
9.19939e-06
8.88238e-06
8.72609e-06
8.58215e-06
8.39759e-06
8.16778e-06
7.93726e-06
7.74069e-06
7.59255e-06
7.41057e-06
7.20552e-06
7.15251e-06
7.04029e-06
6.92687e-06
6.80831e-06
6.66497e-06
6.66738e-06
6.49525e-06
6.44236e-06
6.35378e-06
6.2957e-06
6.23157e-06
6.16625e-06
6.11931e-06
6.06821e-06
6.02368e-06
5.9886e-06
5.94671e-06
5.90706e-06
5.87337e-06
5.84716e-06
5.8363e-06
5.82892e-06
5.82691e-06
5.83006e-06
5.83561e-06
5.85304e-06
5.88106e-06
5.9093e-06
5.91817e-06
5.9304e-06
5.95592e-06
6.0097e-06
6.09711e-06
6.19272e-06
6.29206e-06
6.3971e-06
6.51701e-06
6.65137e-06
6.8234e-06
6.98513e-06
7.13283e-06
7.25934e-06
7.27877e-06
7.41203e-06
7.68324e-06
7.94328e-06
8.17309e-06
8.42242e-06
8.70301e-06
9.03988e-06
9.46259e-06
9.93823e-06
1.05632e-05
1.10091e-05
1.13865e-05
1.19833e-05
1.25281e-05
1.26706e-05
1.35438e-05
1.35509e-05
1.39288e-05
1.33023e-05
1.32081e-05
1.26949e-05
1.19532e-05
1.17799e-05
1.11048e-05
1.06547e-05
1.01648e-05
9.57769e-06
9.21252e-06
8.98019e-06
8.89242e-06
7.85178e-06
7.47607e-06
7.31209e-06
7.49607e-06
7.35138e-06
7.05124e-06
6.91158e-06
6.66422e-06
6.50348e-06
6.36265e-06
6.25151e-06
6.12199e-06
5.9937e-06
5.82949e-06
5.78969e-06
5.66686e-06
5.53409e-06
5.41742e-06
5.31894e-06
5.21952e-06
5.12144e-06
5.01516e-06
4.88689e-06
4.77187e-06
4.70269e-06
4.63485e-06
4.55836e-06
4.47074e-06
4.37737e-06
4.27547e-06
4.16693e-06
4.08054e-06
4.00301e-06
3.91063e-06
3.76979e-06
3.62473e-06
3.47712e-06
3.36336e-06
3.21036e-06
3.01435e-06
2.84053e-06
2.24482e-06
1.66405e-06
1.27678e-06
1.04404e-06
2.7616e-07
2.25534e-08
1.56297e-07
7.72459e-07
1.18886e-06
2.0752e-06
1.79016e-06
1.29919e-06
9.4186e-07
9.22013e-07
1.49658e-06
1.61065e-06
1.94422e-06
1.97529e-06
2.43166e-06
3.59438e-06
5.62965e-06
7.41027e-06
9.64014e-06
9.55804e-06
9.07757e-06
8.17699e-06
6.45711e-06
4.66954e-06
3.03189e-06
2.0682e-06
1.65341e-06
1.25297e-06
9.48994e-07
8.21575e-07
7.89445e-07
9.09734e-07
1.26428e-06
1.62372e-06
1.74587e-06
1.83848e-06
2.03636e-06
2.23123e-06
2.5121e-06
2.8126e-06
3.06609e-06
3.25524e-06
3.49249e-06
3.71749e-06
3.96986e-06
4.29936e-06
4.73648e-06
5.27011e-06
5.72569e-06
6.02523e-06
6.177e-06
6.33516e-06
6.42307e-06
6.67886e-06
6.76077e-06
7.1256e-06
7.38364e-06
7.65801e-06
8.1806e-06
8.86851e-06
9.65021e-06
1.08052e-05
1.24316e-05
1.49322e-05
1.78574e-05
2.14618e-05
2.48788e-05
3.03792e-05
3.33853e-05
3.35189e-05
3.54687e-05
5.61486e-05
0.000323977
0.00243741
0.00296457
0.000596546
4.61408e-05
3.07548e-06
6.9274e-06
9.31552e-06
8.95378e-06
7.79344e-06
6.51756e-06
5.46927e-06
4.56441e-06
4.10028e-06
3.35779e-06
2.62474e-06
2.523e-06
2.28866e-06
2.17633e-06
2.13838e-06
2.50048e-06
2.2802e-06
1.97539e-06
1.95809e-06
2.11342e-06
2.20192e-06
1.97381e-06
1.80946e-06
1.74454e-06
1.71579e-06
1.64245e-06
1.57507e-06
1.54392e-06
1.52413e-06
1.54299e-06
1.6061e-06
1.72257e-06
1.88748e-06
2.13053e-06
2.47683e-06
2.91225e-06
3.43197e-06
4.06602e-06
4.82228e-06
5.65643e-06
6.55435e-06
7.48198e-06
8.43038e-06
9.48553e-06
1.08053e-05
1.23861e-05
1.40331e-05
1.543e-05
1.63517e-05
1.6765e-05
1.67267e-05
1.63111e-05
1.56416e-05
1.48856e-05
1.42069e-05
1.37178e-05
1.34373e-05
1.33531e-05
1.33867e-05
1.34792e-05
1.36087e-05
1.37511e-05
1.38995e-05
1.4071e-05
1.42461e-05
1.43569e-05
1.44723e-05
1.45223e-05
1.48008e-05
1.4919e-05
1.53531e-05
1.57855e-05
1.60453e-05
1.57433e-05
1.55748e-05
1.74274e-05
2.07694e-05
2.21931e-05
2.27487e-05
2.31615e-05
2.49483e-05
2.57917e-05
2.42869e-05
2.12564e-05
1.90804e-05
1.52555e-05
1.20969e-05
9.6213e-06
7.27229e-06
4.43058e-06
3.82932e-06
3.32262e-06
3.32115e-06
3.37237e-06
3.56939e-06
3.81638e-06
4.08931e-06
4.347e-06
4.63209e-06
4.88647e-06
5.18014e-06
5.5114e-06
5.90303e-06
6.37336e-06
6.94233e-06
7.56449e-06
8.11391e-06
8.35907e-06
8.06747e-06
7.84345e-06
7.84295e-06
8.06663e-06
8.35802e-06
8.11268e-06
7.56317e-06
6.94119e-06
6.37215e-06
5.90196e-06
5.51047e-06
5.17932e-06
4.88589e-06
4.63167e-06
4.34734e-06
4.09061e-06
3.8193e-06
3.57491e-06
3.39235e-06
3.38357e-06
3.43879e-06
3.97816e-06
4.65341e-06
7.54493e-06
9.96371e-06
1.24657e-05
1.54935e-05
1.88458e-05
2.12556e-05
2.35549e-05
2.43818e-05
2.31606e-05
2.16122e-05
1.94399e-05
1.89898e-05
1.79348e-05
1.75287e-05
1.70212e-05
1.6136e-05
1.54145e-05
1.47349e-05
1.41365e-05
1.3591e-05
1.31185e-05
1.26587e-05
1.22453e-05
1.18382e-05
1.1438e-05
1.10414e-05
1.07233e-05
1.03946e-05
1.0056e-05
9.77585e-06
9.53592e-06
9.23158e-06
8.92744e-06
8.73035e-06
8.58523e-06
8.38771e-06
8.17603e-06
7.94866e-06
7.74205e-06
7.5891e-06
7.4121e-06
7.26066e-06
7.09448e-06
6.99449e-06
6.86721e-06
6.79376e-06
6.65958e-06
6.5808e-06
6.4876e-06
6.39721e-06
6.31204e-06
6.24371e-06
6.17545e-06
6.10869e-06
6.05521e-06
6.00008e-06
5.953e-06
5.91211e-06
5.86771e-06
5.82724e-06
5.79365e-06
5.77224e-06
5.76548e-06
5.75295e-06
5.74102e-06
5.73177e-06
5.72566e-06
5.72573e-06
5.7357e-06
5.76023e-06
5.78539e-06
5.82383e-06
5.87602e-06
5.93473e-06
6.00167e-06
6.06966e-06
6.14907e-06
6.23811e-06
6.33855e-06
6.43719e-06
6.55075e-06
6.70805e-06
6.91715e-06
7.15844e-06
7.2077e-06
7.30834e-06
7.54725e-06
7.8327e-06
8.09306e-06
8.36963e-06
8.66176e-06
9.00186e-06
9.43116e-06
9.86426e-06
1.03953e-05
1.09276e-05
1.15407e-05
1.22394e-05
1.29863e-05
1.32517e-05
1.39727e-05
1.39928e-05
1.43761e-05
1.36286e-05
1.38754e-05
1.30852e-05
1.26329e-05
1.23553e-05
1.15561e-05
1.14724e-05
1.04495e-05
9.949e-06
9.52166e-06
9.32049e-06
8.64268e-06
8.12108e-06
7.45807e-06
7.33716e-06
7.44196e-06
7.29185e-06
7.07583e-06
6.82889e-06
6.64313e-06
6.47915e-06
6.34108e-06
6.22577e-06
6.10677e-06
5.98581e-06
5.84611e-06
5.72353e-06
5.61338e-06
5.49878e-06
5.39295e-06
5.2843e-06
5.17782e-06
5.07184e-06
4.96465e-06
4.84416e-06
4.73079e-06
4.65261e-06
4.58257e-06
4.50165e-06
4.41245e-06
4.31808e-06
4.21708e-06
4.10866e-06
4.00846e-06
3.91241e-06
3.80509e-06
3.68463e-06
3.53686e-06
3.39033e-06
3.24911e-06
3.07721e-06
2.82145e-06
2.45839e-06
2.06677e-06
1.62596e-06
1.22408e-06
8.41692e-07
2.07468e-07
3.64141e-08
4.56513e-08
3.37323e-07
7.21713e-07
8.5745e-07
1.10697e-06
1.18411e-06
7.20839e-07
9.92226e-07
1.69821e-06
1.45395e-06
1.61127e-06
1.97853e-06
2.99207e-06
4.69632e-06
7.92448e-06
1.09613e-05
1.49349e-05
1.63969e-05
1.67335e-05
1.54228e-05
1.26991e-05
9.22941e-06
6.22098e-06
4.33252e-06
3.25814e-06
2.45508e-06
1.86344e-06
1.50665e-06
1.33326e-06
1.36496e-06
1.70872e-06
2.18522e-06
2.50489e-06
2.85704e-06
3.25339e-06
3.59793e-06
3.90835e-06
4.17521e-06
4.41012e-06
4.62582e-06
4.81624e-06
5.01465e-06
5.26092e-06
5.57368e-06
6.01902e-06
6.55195e-06
7.07919e-06
7.36095e-06
7.55979e-06
7.71686e-06
7.78587e-06
8.01793e-06
8.10841e-06
8.46667e-06
8.70612e-06
8.99883e-06
9.48862e-06
1.01909e-05
1.09449e-05
1.20973e-05
1.37079e-05
1.616e-05
1.91041e-05
2.25839e-05
2.63371e-05
3.15937e-05
3.45091e-05
3.48296e-05
3.60511e-05
5.61544e-05
0.000322008
0.00247001
0.00299969
0.000583345
4.4923e-05
2.74056e-06
6.17523e-06
8.1445e-06
7.83714e-06
6.89991e-06
5.70703e-06
4.66134e-06
3.71428e-06
3.06669e-06
2.3943e-06
1.76139e-06
1.37065e-06
1.26574e-06
1.31589e-06
1.11543e-06
1.06616e-06
9.62937e-07
9.20011e-07
9.3795e-07
9.82135e-07
9.85968e-07
9.18332e-07
8.8639e-07
8.76137e-07
8.65179e-07
8.48215e-07
8.63624e-07
9.00262e-07
9.40974e-07
1.01214e-06
1.12489e-06
1.28391e-06
1.48879e-06
1.76186e-06
2.12432e-06
2.57275e-06
3.10241e-06
3.73513e-06
4.48432e-06
5.3108e-06
6.20474e-06
7.13624e-06
8.09057e-06
9.16144e-06
1.04897e-05
1.20579e-05
1.36814e-05
1.50534e-05
1.59595e-05
1.6364e-05
1.63276e-05
1.5912e-05
1.52346e-05
1.44672e-05
1.37748e-05
1.32755e-05
1.29965e-05
1.29049e-05
1.29134e-05
1.29772e-05
1.30774e-05
1.31929e-05
1.33164e-05
1.34452e-05
1.35724e-05
1.36644e-05
1.37841e-05
1.37026e-05
1.39527e-05
1.40102e-05
1.41732e-05
1.45076e-05
1.5053e-05
1.52823e-05
1.53473e-05
1.7839e-05
1.94473e-05
1.96105e-05
2.17257e-05
2.34302e-05
2.47847e-05
2.48821e-05
2.46412e-05
2.26454e-05
1.86901e-05
1.54778e-05
1.18386e-05
9.28113e-06
7.11672e-06
4.25731e-06
3.61741e-06
3.18714e-06
3.26078e-06
3.35664e-06
3.56566e-06
3.81454e-06
4.08861e-06
4.34682e-06
4.63236e-06
4.88675e-06
5.18055e-06
5.51194e-06
5.90361e-06
6.37384e-06
6.94265e-06
7.56567e-06
8.11434e-06
8.35958e-06
8.06791e-06
7.84383e-06
7.84241e-06
8.06618e-06
8.35745e-06
8.1118e-06
7.56301e-06
6.94012e-06
6.37146e-06
5.90145e-06
5.50996e-06
5.1789e-06
4.88559e-06
4.63144e-06
4.34761e-06
4.09138e-06
3.82113e-06
3.57863e-06
3.40137e-06
3.41776e-06
3.5356e-06
4.12967e-06
4.83453e-06
7.72227e-06
1.01688e-05
1.26853e-05
1.56325e-05
1.87673e-05
2.10194e-05
2.27446e-05
2.29416e-05
2.20458e-05
2.07918e-05
1.9612e-05
1.88471e-05
1.78642e-05
1.73128e-05
1.67089e-05
1.59745e-05
1.5303e-05
1.46848e-05
1.4104e-05
1.35649e-05
1.30931e-05
1.26278e-05
1.22187e-05
1.18359e-05
1.14568e-05
1.10697e-05
1.07457e-05
1.04249e-05
1.00951e-05
9.81437e-06
9.54859e-06
9.26885e-06
8.96735e-06
8.77759e-06
8.61802e-06
8.39578e-06
8.19706e-06
7.9843e-06
7.79471e-06
7.6317e-06
7.4518e-06
7.29184e-06
7.16561e-06
7.06645e-06
6.91996e-06
6.82386e-06
6.71319e-06
6.64455e-06
6.53422e-06
6.4585e-06
6.38375e-06
6.31272e-06
6.24695e-06
6.19106e-06
6.14031e-06
6.09136e-06
6.05155e-06
6.01159e-06
5.97078e-06
5.93244e-06
5.90069e-06
5.87718e-06
5.8604e-06
5.85276e-06
5.85302e-06
5.85592e-06
5.86531e-06
5.88646e-06
5.92074e-06
5.95109e-06
5.96237e-06
5.96941e-06
5.99283e-06
6.05419e-06
6.15531e-06
6.26977e-06
6.38975e-06
6.51935e-06
6.66172e-06
6.80931e-06
6.99016e-06
7.20365e-06
7.29002e-06
7.3392e-06
7.31626e-06
7.46728e-06
7.79599e-06
7.99792e-06
8.1987e-06
8.43382e-06
8.72226e-06
9.08372e-06
9.52165e-06
9.98197e-06
1.07121e-05
1.11856e-05
1.22242e-05
1.38339e-05
1.51133e-05
1.57948e-05
1.64832e-05
1.65148e-05
1.71026e-05
1.57152e-05
1.66938e-05
1.53317e-05
1.48117e-05
1.51627e-05
1.35999e-05
1.39745e-05
1.18977e-05
1.09603e-05
9.5673e-06
9.23154e-06
8.82564e-06
8.33997e-06
7.65872e-06
7.53023e-06
7.66315e-06
7.5386e-06
7.26599e-06
6.97377e-06
6.836e-06
6.70652e-06
6.60753e-06
6.5255e-06
6.42879e-06
6.29204e-06
6.05918e-06
6.14661e-06
6.00757e-06
5.74613e-06
5.65599e-06
5.56794e-06
5.45661e-06
5.33311e-06
5.17557e-06
5.00337e-06
4.85808e-06
4.73396e-06
4.62416e-06
4.52066e-06
4.41872e-06
4.31174e-06
4.19865e-06
4.0804e-06
3.97717e-06
3.88155e-06
3.77238e-06
3.63014e-06
3.48007e-06
3.32687e-06
3.17101e-06
2.97361e-06
2.70846e-06
2.44074e-06
2.00152e-06
1.56566e-06
1.19428e-06
8.04168e-07
3.52181e-07
7.7268e-08
2.55457e-08
1.88926e-07
4.7609e-07
6.66576e-07
8.72921e-07
8.48114e-07
6.83245e-07
1.00153e-06
2.86713e-06
3.85132e-06
3.73327e-06
4.40238e-06
5.78081e-06
9.24815e-06
1.50565e-05
2.06639e-05
2.65973e-05
2.81191e-05
2.84191e-05
2.72017e-05
2.37942e-05
1.91726e-05
1.44903e-05
1.09633e-05
8.54345e-06
6.6602e-06
5.27916e-06
4.26925e-06
3.50322e-06
3.14218e-06
3.46401e-06
4.35788e-06
5.44635e-06
6.69657e-06
8.01058e-06
9.00299e-06
9.79763e-06
1.0521e-05
1.05973e-05
1.04362e-05
1.03588e-05
1.03059e-05
1.03377e-05
1.05401e-05
1.09425e-05
1.15254e-05
1.20975e-05
1.24787e-05
1.31415e-05
1.33421e-05
1.3489e-05
1.36685e-05
1.36955e-05
1.40543e-05
1.43821e-05
1.4663e-05
1.52624e-05
1.5894e-05
1.67226e-05
1.77301e-05
1.94278e-05
2.16859e-05
2.46577e-05
2.78694e-05
3.20056e-05
3.68837e-05
3.98144e-05
4.07435e-05
4.13978e-05
6.01748e-05
0.00031854
0.00247439
0.00305335
0.000584577
4.40942e-05
3.46794e-06
7.66421e-06
9.9267e-06
9.47574e-06
8.28406e-06
6.92345e-06
5.8146e-06
4.83727e-06
4.40674e-06
3.66225e-06
2.95767e-06
2.96742e-06
2.63121e-06
2.48552e-06
2.54027e-06
3.06907e-06
2.7547e-06
2.40337e-06
2.38631e-06
2.58325e-06
2.63757e-06
2.3694e-06
2.17016e-06
2.08232e-06
2.02859e-06
1.9243e-06
1.827e-06
1.76083e-06
1.70933e-06
1.70253e-06
1.73833e-06
1.82583e-06
1.96729e-06
2.19095e-06
2.51936e-06
2.93886e-06
3.44581e-06
4.06953e-06
4.815e-06
5.63643e-06
6.52373e-06
7.45272e-06
8.41511e-06
9.48753e-06
1.08043e-05
1.23543e-05
1.39531e-05
1.5302e-05
1.61933e-05
1.65956e-05
1.65642e-05
1.61608e-05
1.55049e-05
1.47692e-05
1.41142e-05
1.36458e-05
1.33837e-05
1.3297e-05
1.33037e-05
1.33618e-05
1.34629e-05
1.3586e-05
1.37229e-05
1.3871e-05
1.40166e-05
1.41381e-05
1.432e-05
1.43455e-05
1.44981e-05
1.47106e-05
1.49869e-05
1.53416e-05
1.58384e-05
1.7294e-05
1.70716e-05
1.59537e-05
1.7185e-05
1.97332e-05
2.27066e-05
2.44409e-05
2.60019e-05
2.55816e-05
2.4805e-05
2.27422e-05
1.96283e-05
1.48927e-05
1.18313e-05
9.1619e-06
7.11846e-06
4.27534e-06
3.65497e-06
3.18631e-06
3.25486e-06
3.35283e-06
3.56438e-06
3.81339e-06
4.08801e-06
4.34668e-06
4.63258e-06
4.88708e-06
5.18103e-06
5.51241e-06
5.9042e-06
6.37456e-06
6.94353e-06
7.56601e-06
8.11506e-06
8.36014e-06
8.06835e-06
7.84412e-06
7.84217e-06
8.0658e-06
8.35694e-06
8.11128e-06
7.56191e-06
6.93985e-06
6.37095e-06
5.90087e-06
5.5095e-06
5.1785e-06
4.88533e-06
4.63124e-06
4.34771e-06
4.09204e-06
3.8228e-06
3.58176e-06
3.41013e-06
3.44926e-06
3.61863e-06
4.25543e-06
4.98169e-06
7.8775e-06
1.03336e-05
1.27973e-05
1.56965e-05
1.86473e-05
2.06701e-05
2.20099e-05
2.20541e-05
2.12767e-05
2.03017e-05
1.92485e-05
1.84465e-05
1.75434e-05
1.7052e-05
1.64649e-05
1.58156e-05
1.51871e-05
1.45999e-05
1.40463e-05
1.35283e-05
1.30711e-05
1.26174e-05
1.22138e-05
1.18115e-05
1.14248e-05
1.10497e-05
1.07217e-05
1.04012e-05
1.00823e-05
9.78952e-06
9.52971e-06
9.26552e-06
8.97803e-06
8.76841e-06
8.59122e-06
8.36747e-06
8.17909e-06
7.9711e-06
7.78159e-06
7.60898e-06
7.43009e-06
7.27306e-06
7.13543e-06
7.03091e-06
6.8751e-06
6.78018e-06
6.68189e-06
6.59123e-06
6.48498e-06
6.40191e-06
6.31983e-06
6.24323e-06
6.17344e-06
6.11287e-06
6.05747e-06
6.00398e-06
5.95926e-06
5.91735e-06
5.8739e-06
5.83423e-06
5.80149e-06
5.78167e-06
5.77242e-06
5.76151e-06
5.75514e-06
5.75043e-06
5.74689e-06
5.75062e-06
5.76728e-06
5.79691e-06
5.81779e-06
5.84911e-06
5.89015e-06
5.94126e-06
6.00567e-06
6.07161e-06
6.14703e-06
6.22805e-06
6.32176e-06
6.41751e-06
6.52755e-06
6.68797e-06
6.98953e-06
7.19106e-06
7.21689e-06
7.31846e-06
7.55021e-06
7.87169e-06
8.12924e-06
8.40235e-06
8.69241e-06
9.02986e-06
9.47775e-06
1.00003e-05
1.06263e-05
1.12875e-05
1.34968e-05
1.5743e-05
1.77491e-05
1.87181e-05
1.92534e-05
1.92335e-05
1.98964e-05
1.79664e-05
1.97024e-05
1.769e-05
1.7512e-05
1.8009e-05
1.58782e-05
1.66303e-05
1.33212e-05
1.20496e-05
1.00001e-05
9.64426e-06
9.27304e-06
8.98003e-06
8.09709e-06
7.82587e-06
7.76881e-06
7.55917e-06
7.26457e-06
6.96421e-06
6.87267e-06
6.75823e-06
6.68086e-06
6.62232e-06
6.56039e-06
6.42527e-06
6.23481e-06
6.28848e-06
6.13512e-06
5.88766e-06
5.82333e-06
5.75334e-06
5.64031e-06
5.48924e-06
5.28402e-06
5.05934e-06
4.87406e-06
4.71928e-06
4.62536e-06
4.53557e-06
4.42165e-06
4.29621e-06
4.16931e-06
4.04766e-06
3.93937e-06
3.82816e-06
3.72071e-06
3.57798e-06
3.4275e-06
3.26439e-06
3.08867e-06
2.87044e-06
2.60553e-06
2.29931e-06
1.92059e-06
1.53483e-06
1.15519e-06
7.85087e-07
3.93061e-07
1.05908e-07
2.90192e-08
8.64175e-08
2.83549e-07
4.65749e-07
6.62693e-07
7.12806e-07
6.56671e-07
1.14633e-06
3.52291e-06
5.58571e-06
5.03795e-06
6.21925e-06
7.75439e-06
1.17569e-05
1.84569e-05
2.4045e-05
2.94849e-05
3.06529e-05
3.07913e-05
2.98866e-05
2.72397e-05
2.3587e-05
1.92826e-05
1.54066e-05
1.23339e-05
9.82378e-06
7.83632e-06
6.3629e-06
5.20013e-06
4.57091e-06
4.90665e-06
6.17953e-06
7.98113e-06
1.00835e-05
1.22992e-05
1.40205e-05
1.5363e-05
1.64388e-05
1.63497e-05
1.59569e-05
1.57491e-05
1.55653e-05
1.55096e-05
1.57148e-05
1.6164e-05
1.68585e-05
1.76649e-05
1.83398e-05
1.93937e-05
1.9631e-05
1.98166e-05
1.98437e-05
1.97835e-05
2.02067e-05
2.06105e-05
2.09731e-05
2.16185e-05
2.22514e-05
2.31058e-05
2.4055e-05
2.57778e-05
2.78889e-05
3.08894e-05
3.39524e-05
3.83837e-05
4.30369e-05
4.60742e-05
4.73976e-05
4.73384e-05
6.4795e-05
0.00031368
0.00249987
0.00317345
0.000567961
4.12181e-05
3.02832e-06
6.46571e-06
8.24628e-06
7.79853e-06
6.82347e-06
5.64316e-06
4.67252e-06
3.85367e-06
3.28364e-06
2.63567e-06
2.01044e-06
1.60057e-06
1.44075e-06
1.44187e-06
1.33373e-06
1.28286e-06
1.02421e-06
9.28692e-07
9.59167e-07
1.01694e-06
9.90084e-07
8.76441e-07
8.19599e-07
7.97331e-07
7.76372e-07
7.50427e-07
7.5621e-07
7.93825e-07
8.49194e-07
9.32841e-07
1.05827e-06
1.23154e-06
1.45361e-06
1.74433e-06
2.1231e-06
2.58949e-06
3.14179e-06
3.7954e-06
4.55821e-06
5.3934e-06
6.29976e-06
7.25891e-06
8.25605e-06
9.35962e-06
1.06879e-05
1.22109e-05
1.37528e-05
1.50446e-05
1.59003e-05
1.62883e-05
1.62659e-05
1.58953e-05
1.52964e-05
1.46272e-05
1.40289e-05
1.35974e-05
1.33461e-05
1.32517e-05
1.32477e-05
1.33028e-05
1.34038e-05
1.35322e-05
1.36788e-05
1.38395e-05
1.39918e-05
1.41162e-05
1.43223e-05
1.4483e-05
1.44939e-05
1.46576e-05
1.49651e-05
1.53772e-05
1.5718e-05
1.62049e-05
1.77943e-05
1.8295e-05
2.14526e-05
2.3085e-05
2.31852e-05
2.51865e-05
2.53413e-05
2.55916e-05
2.53308e-05
2.29657e-05
1.93067e-05
1.55465e-05
1.12644e-05
8.20854e-06
6.20074e-06
4.01118e-06
3.53489e-06
3.12501e-06
3.21612e-06
3.334e-06
3.56025e-06
3.81167e-06
4.08744e-06
4.3465e-06
4.63282e-06
4.88736e-06
5.1814e-06
5.51292e-06
5.90466e-06
6.37511e-06
6.94413e-06
7.5665e-06
8.11574e-06
8.3607e-06
8.06875e-06
7.84445e-06
7.84173e-06
8.06538e-06
8.35643e-06
8.11092e-06
7.56161e-06
6.9388e-06
6.37032e-06
5.90037e-06
5.50901e-06
5.17808e-06
4.88506e-06
4.63102e-06
4.34799e-06
4.09275e-06
3.82442e-06
3.58444e-06
3.41697e-06
3.47356e-06
3.68691e-06
4.35449e-06
5.08776e-06
7.89359e-06
1.03822e-05
1.28814e-05
1.57424e-05
1.85124e-05
2.03269e-05
2.13062e-05
2.11956e-05
2.06028e-05
1.9809e-05
1.88282e-05
1.79942e-05
1.72159e-05
1.67628e-05
1.6184e-05
1.56175e-05
1.50249e-05
1.44844e-05
1.39633e-05
1.34711e-05
1.30221e-05
1.25789e-05
1.2179e-05
1.17842e-05
1.14103e-05
1.104e-05
1.07158e-05
1.03939e-05
1.00796e-05
9.80323e-06
9.54068e-06
9.26403e-06
8.98349e-06
8.78017e-06
8.61009e-06
8.38555e-06
8.1878e-06
7.97122e-06
7.79138e-06
7.62453e-06
7.43886e-06
7.28849e-06
7.16384e-06
7.0569e-06
6.89796e-06
6.79977e-06
6.71553e-06
6.62237e-06
6.52118e-06
6.4479e-06
6.37007e-06
6.29426e-06
6.22469e-06
6.16799e-06
6.11161e-06
6.06116e-06
6.01982e-06
5.97513e-06
5.93256e-06
5.89435e-06
5.86231e-06
5.84035e-06
5.82407e-06
5.80912e-06
5.79744e-06
5.78873e-06
5.78726e-06
5.79411e-06
5.8079e-06
5.82334e-06
5.83568e-06
5.86465e-06
5.91744e-06
5.9951e-06
6.09632e-06
6.20966e-06
6.34329e-06
6.48064e-06
6.61665e-06
6.7306e-06
6.88743e-06
7.12426e-06
7.29934e-06
7.39409e-06
7.33176e-06
7.58242e-06
7.92721e-06
8.05114e-06
8.28812e-06
8.49847e-06
8.78757e-06
9.21775e-06
9.80921e-06
1.05986e-05
1.17399e-05
1.25023e-05
1.53148e-05
1.86363e-05
2.10188e-05
2.20971e-05
2.25739e-05
2.2386e-05
2.30828e-05
2.05876e-05
2.27345e-05
2.02454e-05
2.00145e-05
2.08948e-05
1.81733e-05
1.90462e-05
1.49764e-05
1.3154e-05
1.03894e-05
9.99894e-06
9.67025e-06
9.43782e-06
8.49911e-06
8.27219e-06
8.22809e-06
8.0286e-06
7.61769e-06
7.29755e-06
7.31794e-06
7.21562e-06
7.16369e-06
7.11877e-06
7.04711e-06
6.85339e-06
6.63544e-06
6.72613e-06
6.5285e-06
6.21115e-06
6.13449e-06
6.05463e-06
5.90305e-06
5.70263e-06
5.42869e-06
5.16133e-06
4.96528e-06
4.78017e-06
4.64386e-06
4.5181e-06
4.38641e-06
4.25833e-06
4.13525e-06
4.01079e-06
3.89859e-06
3.79015e-06
3.67259e-06
3.52028e-06
3.35874e-06
3.19318e-06
3.00639e-06
2.7823e-06
2.52135e-06
2.22647e-06
1.82959e-06
1.4911e-06
1.13429e-06
7.79543e-07
4.2479e-07
1.48361e-07
4.01294e-08
5.07446e-08
1.81077e-07
3.5407e-07
5.13576e-07
5.71456e-07
6.14874e-07
9.79513e-07
2.8532e-06
6.37847e-06
7.00007e-06
8.45223e-06
9.42283e-06
1.29394e-05
1.94223e-05
2.54875e-05
3.05935e-05
3.13604e-05
3.0949e-05
2.96761e-05
2.68193e-05
2.29748e-05
1.88939e-05
1.55773e-05
1.31702e-05
1.09869e-05
9.03243e-06
7.49209e-06
6.20693e-06
5.48633e-06
5.88125e-06
7.47098e-06
9.81707e-06
1.25799e-05
1.55402e-05
1.78819e-05
1.97899e-05
2.1338e-05
2.11451e-05
2.04322e-05
2.00667e-05
1.97972e-05
1.97072e-05
1.99613e-05
2.04982e-05
2.13585e-05
2.2375e-05
2.34643e-05
2.50701e-05
2.53906e-05
2.56613e-05
2.5585e-05
2.54388e-05
2.59364e-05
2.64967e-05
2.6973e-05
2.77924e-05
2.84706e-05
2.94411e-05
3.03574e-05
3.21655e-05
3.41673e-05
3.7161e-05
4.0172e-05
4.47972e-05
4.91394e-05
5.23451e-05
5.41877e-05
5.35197e-05
6.95546e-05
0.000306699
0.00251435
0.00329805
0.000562725
3.97014e-05
3.86531e-06
7.5864e-06
9.36899e-06
8.74132e-06
7.55836e-06
6.18262e-06
5.02932e-06
3.9925e-06
3.39622e-06
2.76897e-06
2.21108e-06
2.06742e-06
1.86906e-06
1.83813e-06
1.76117e-06
2.06379e-06
1.97035e-06
1.78421e-06
1.82244e-06
1.96958e-06
2.00897e-06
1.8713e-06
1.78201e-06
1.74402e-06
1.70854e-06
1.64611e-06
1.60765e-06
1.5681e-06
1.52227e-06
1.52207e-06
1.56659e-06
1.65887e-06
1.80266e-06
2.02605e-06
2.34724e-06
2.75458e-06
3.24789e-06
3.85436e-06
4.58048e-06
5.38659e-06
6.26501e-06
7.20437e-06
8.19359e-06
9.28954e-06
1.05988e-05
1.20877e-05
1.35826e-05
1.48388e-05
1.56892e-05
1.6084e-05
1.60686e-05
1.57083e-05
1.51252e-05
1.44754e-05
1.3889e-05
1.34547e-05
1.31909e-05
1.30814e-05
1.30595e-05
1.31037e-05
1.31927e-05
1.33084e-05
1.34412e-05
1.35794e-05
1.37202e-05
1.38547e-05
1.4063e-05
1.42075e-05
1.42752e-05
1.43621e-05
1.45901e-05
1.48913e-05
1.52352e-05
1.54365e-05
1.7006e-05
1.77049e-05
1.81271e-05
1.85793e-05
2.19103e-05
2.21531e-05
2.52768e-05
2.59575e-05
2.45933e-05
2.33122e-05
1.9839e-05
1.52192e-05
1.17558e-05
8.53314e-06
6.50293e-06
3.93178e-06
3.35666e-06
3.03114e-06
3.16806e-06
3.31522e-06
3.55631e-06
3.81019e-06
4.08679e-06
4.34634e-06
4.63306e-06
4.88765e-06
5.18184e-06
5.51337e-06
5.90527e-06
6.37562e-06
6.94483e-06
7.56736e-06
8.11639e-06
8.36119e-06
8.06918e-06
7.84477e-06
7.84153e-06
8.06494e-06
8.35591e-06
8.10998e-06
7.56073e-06
6.93843e-06
6.36976e-06
5.89982e-06
5.50853e-06
5.17767e-06
4.88475e-06
4.63082e-06
4.34811e-06
4.09346e-06
3.82589e-06
3.58692e-06
3.42176e-06
3.48888e-06
3.73013e-06
4.41973e-06
5.13228e-06
7.76341e-06
1.0281e-05
1.28565e-05
1.56804e-05
1.82961e-05
1.99105e-05
2.05973e-05
2.04235e-05
1.99656e-05
1.93037e-05
1.84562e-05
1.7682e-05
1.69908e-05
1.65361e-05
1.59926e-05
1.54629e-05
1.49127e-05
1.43989e-05
1.3902e-05
1.34317e-05
1.2996e-05
1.25655e-05
1.2173e-05
1.17822e-05
1.14168e-05
1.10581e-05
1.0732e-05
1.04174e-05
1.01085e-05
9.82053e-06
9.55883e-06
9.29463e-06
9.01225e-06
8.80639e-06
8.61668e-06
8.39581e-06
8.21555e-06
8.00479e-06
7.82439e-06
7.65531e-06
7.47116e-06
7.32429e-06
7.1923e-06
7.08528e-06
6.92861e-06
6.82024e-06
6.73702e-06
6.64113e-06
6.54148e-06
6.46306e-06
6.38216e-06
6.30421e-06
6.23447e-06
6.17779e-06
6.11989e-06
6.06952e-06
6.02775e-06
5.97996e-06
5.93277e-06
5.8912e-06
5.8581e-06
5.83858e-06
5.82057e-06
5.80258e-06
5.79309e-06
5.78543e-06
5.78464e-06
5.79697e-06
5.82115e-06
5.84806e-06
5.86432e-06
5.90061e-06
5.95687e-06
6.03674e-06
6.13255e-06
6.23214e-06
6.34149e-06
6.45935e-06
6.60129e-06
6.74585e-06
6.89405e-06
6.99455e-06
7.13563e-06
7.33733e-06
7.46219e-06
7.60874e-06
7.79543e-06
7.93443e-06
8.18814e-06
8.43965e-06
8.78519e-06
9.28872e-06
1.00827e-05
1.11101e-05
1.21725e-05
1.30471e-05
1.69164e-05
2.07824e-05
2.33924e-05
2.43412e-05
2.47688e-05
2.44489e-05
2.50584e-05
2.22756e-05
2.4585e-05
2.18505e-05
2.1623e-05
2.25658e-05
1.9547e-05
2.02951e-05
1.59016e-05
1.37976e-05
1.06964e-05
1.0299e-05
9.99113e-06
9.80636e-06
8.83988e-06
8.57994e-06
8.45185e-06
8.21383e-06
7.79439e-06
7.50512e-06
7.49981e-06
7.38361e-06
7.31013e-06
7.24956e-06
7.1631e-06
6.96819e-06
6.78801e-06
6.80441e-06
6.59625e-06
6.31506e-06
6.24764e-06
6.18146e-06
6.03439e-06
5.81568e-06
5.50511e-06
5.20014e-06
4.94676e-06
4.73612e-06
4.60257e-06
4.48179e-06
4.34563e-06
4.21712e-06
4.10031e-06
3.97708e-06
3.8603e-06
3.74197e-06
3.61426e-06
3.46501e-06
3.31011e-06
3.12307e-06
2.93493e-06
2.70482e-06
2.44859e-06
2.11964e-06
1.78386e-06
1.45033e-06
1.10345e-06
7.99209e-07
4.42817e-07
1.90312e-07
5.88668e-08
3.06228e-08
1.00294e-07
2.36991e-07
3.87e-07
4.47431e-07
5.61016e-07
1.02472e-06
2.49791e-06
6.20528e-06
7.28256e-06
8.87507e-06
9.57758e-06
1.24685e-05
1.83784e-05
2.41659e-05
2.86619e-05
2.88915e-05
2.80786e-05
2.67635e-05
2.40899e-05
2.04545e-05
1.66474e-05
1.34763e-05
1.12093e-05
9.49127e-06
8.09293e-06
6.96285e-06
5.94973e-06
5.3817e-06
5.8544e-06
7.49567e-06
9.89557e-06
1.2728e-05
1.57838e-05
1.82784e-05
2.03638e-05
2.20653e-05
2.20375e-05
2.14136e-05
2.11278e-05
2.09526e-05
2.0967e-05
2.13519e-05
2.20346e-05
2.30584e-05
2.42869e-05
2.56881e-05
2.75847e-05
2.80233e-05
2.83203e-05
2.81999e-05
2.80399e-05
2.8627e-05
2.93062e-05
2.99104e-05
3.08387e-05
3.16034e-05
3.2651e-05
3.3626e-05
3.54959e-05
3.74927e-05
4.05193e-05
4.35807e-05
4.83154e-05
5.25691e-05
5.5968e-05
5.80444e-05
5.70726e-05
7.17945e-05
0.000295692
0.00252262
0.00348696
0.00055521
3.59294e-05
3.65708e-06
7.6009e-06
9.54238e-06
9.0544e-06
7.89361e-06
6.52405e-06
5.30647e-06
4.19129e-06
3.52284e-06
2.83712e-06
2.22841e-06
1.97294e-06
1.77682e-06
1.75802e-06
1.82892e-06
2.06509e-06
1.73143e-06
1.4963e-06
1.58164e-06
1.77346e-06
1.76833e-06
1.54803e-06
1.42446e-06
1.38546e-06
1.35718e-06
1.29548e-06
1.25163e-06
1.24843e-06
1.26655e-06
1.31971e-06
1.4146e-06
1.55769e-06
1.75448e-06
2.02479e-06
2.38639e-06
2.83781e-06
3.37802e-06
4.02012e-06
4.76638e-06
5.58118e-06
6.46415e-06
7.40755e-06
8.41066e-06
9.5227e-06
1.08272e-05
1.22698e-05
1.36881e-05
1.48736e-05
1.56854e-05
1.60696e-05
1.60693e-05
1.57518e-05
1.52396e-05
1.46711e-05
1.41552e-05
1.37649e-05
1.3519e-05
1.34045e-05
1.33635e-05
1.33835e-05
1.34532e-05
1.35593e-05
1.36899e-05
1.38303e-05
1.39736e-05
1.41336e-05
1.43937e-05
1.4576e-05
1.47279e-05
1.49027e-05
1.52063e-05
1.56737e-05
1.62822e-05
1.70448e-05
1.83834e-05
1.91069e-05
2.0256e-05
2.16411e-05
2.23318e-05
2.51385e-05
2.43763e-05
2.30254e-05
2.48261e-05
2.29645e-05
1.97831e-05
1.56686e-05
1.13731e-05
7.93522e-06
5.85143e-06
3.89568e-06
3.29047e-06
2.96396e-06
3.12828e-06
3.29744e-06
3.55257e-06
3.80877e-06
4.08617e-06
4.34618e-06
4.6333e-06
4.88794e-06
5.18224e-06
5.51387e-06
5.90572e-06
6.37641e-06
6.94529e-06
7.56799e-06
8.11702e-06
8.36146e-06
8.06962e-06
7.84516e-06
7.84104e-06
8.06449e-06
8.35534e-06
8.1098e-06
7.55993e-06
6.93781e-06
6.36909e-06
5.89928e-06
5.50802e-06
5.17724e-06
4.88447e-06
4.63058e-06
4.34839e-06
4.09414e-06
3.82747e-06
3.58921e-06
3.4249e-06
3.49581e-06
3.75838e-06
4.45331e-06
5.12875e-06
7.56806e-06
1.01042e-05
1.27665e-05
1.55592e-05
1.80384e-05
1.94796e-05
1.99087e-05
1.97081e-05
1.93867e-05
1.88433e-05
1.80831e-05
1.73507e-05
1.67427e-05
1.62604e-05
1.57366e-05
1.52494e-05
1.47324e-05
1.42611e-05
1.37887e-05
1.33437e-05
1.29194e-05
1.25064e-05
1.21215e-05
1.17434e-05
1.13871e-05
1.10351e-05
1.07147e-05
1.0401e-05
1.01032e-05
9.8244e-06
9.55553e-06
9.29299e-06
9.02846e-06
8.81644e-06
8.62571e-06
8.40015e-06
8.20559e-06
7.99795e-06
7.82064e-06
7.65133e-06
7.4644e-06
7.32204e-06
7.18766e-06
7.07197e-06
6.92051e-06
6.81125e-06
6.72928e-06
6.63169e-06
6.53844e-06
6.46087e-06
6.38238e-06
6.30658e-06
6.24014e-06
6.18611e-06
6.1297e-06
6.08413e-06
6.04558e-06
6.0018e-06
5.96328e-06
5.93003e-06
5.90229e-06
5.88752e-06
5.87929e-06
5.87725e-06
5.8802e-06
5.87949e-06
5.891e-06
5.92346e-06
5.9623e-06
5.97967e-06
5.97091e-06
5.99386e-06
6.06895e-06
6.21071e-06
6.39211e-06
6.58863e-06
6.803e-06
7.03516e-06
7.273e-06
7.44139e-06
7.57924e-06
7.53402e-06
7.37859e-06
7.76453e-06
7.80022e-06
8.15634e-06
8.2726e-06
8.03688e-06
8.30347e-06
8.5789e-06
9.02059e-06
9.72469e-06
1.06934e-05
1.182e-05
1.2956e-05
1.41286e-05
1.83202e-05
2.24125e-05
2.49484e-05
2.57512e-05
2.61255e-05
2.56098e-05
2.60371e-05
2.31683e-05
2.53247e-05
2.25766e-05
2.22278e-05
2.31018e-05
2.00448e-05
2.05154e-05
1.6201e-05
1.39732e-05
1.08553e-05
1.04134e-05
1.0114e-05
9.96194e-06
9.11441e-06
8.86838e-06
8.68176e-06
8.39564e-06
7.96047e-06
7.68714e-06
7.68075e-06
7.55383e-06
7.46882e-06
7.38791e-06
7.27398e-06
7.06361e-06
6.89094e-06
6.8352e-06
6.6143e-06
6.35704e-06
6.25755e-06
6.15738e-06
5.9769e-06
5.73951e-06
5.42411e-06
5.1273e-06
4.89223e-06
4.69167e-06
4.56082e-06
4.45354e-06
4.33514e-06
4.20171e-06
4.06768e-06
3.93843e-06
3.82065e-06
3.69607e-06
3.5584e-06
3.4091e-06
3.24684e-06
3.057e-06
2.8626e-06
2.63376e-06
2.35465e-06
2.06638e-06
1.74018e-06
1.41632e-06
1.08122e-06
8.0276e-07
4.64503e-07
2.3382e-07
8.56647e-08
3.31661e-08
6.54062e-08
1.70689e-07
3.04846e-07
3.88651e-07
5.92436e-07
1.20596e-06
2.35816e-06
5.90757e-06
8.08846e-06
1.04003e-05
1.13088e-05
1.38119e-05
1.90609e-05
2.41409e-05
2.77964e-05
2.73537e-05
2.57277e-05
2.40326e-05
2.14187e-05
1.80229e-05
1.43996e-05
1.13551e-05
9.27428e-06
7.76491e-06
6.58313e-06
5.74569e-06
5.03942e-06
4.68911e-06
5.20537e-06
6.71745e-06
8.8707e-06
1.13982e-05
1.41969e-05
1.65128e-05
1.84696e-05
2.01763e-05
2.02195e-05
1.96713e-05
1.95386e-05
1.95513e-05
1.97299e-05
2.02371e-05
2.10085e-05
2.20911e-05
2.33655e-05
2.48641e-05
2.68211e-05
2.73426e-05
2.76677e-05
2.75788e-05
2.74531e-05
2.81201e-05
2.88982e-05
2.96418e-05
3.06842e-05
3.16071e-05
3.27687e-05