/*--------------------------------*- C++ -*----------------------------------*\
| =========                 |                                                 |
| \\      /  F ield         | OpenFOAM: The Open Source CFD Toolbox           |
|  \\    /   O peration     | Version:  v2006                                 |
|   \\  /    A nd           | Website:  www.openfoam.com                      |
|    \\/     M anipulation  |                                                 |
\*---------------------------------------------------------------------------*/
FoamFile
{
    version     2.0;
    format      ascii;
    class       volScalarField;
    location    "185";
    object      rho;
}
// * * * * * * * * * * * * * * * * * * * * * * * * * * * * * * * * * * * * * //

dimensions      [1 -3 0 0 0 0 0];


internalField   nonuniform List<scalar> 
93840
(
0.986375
0.986271
0.986012
0.986201
0.986723
0.987493
0.988434
0.989499
0.990701
0.992169
0.993963
0.996217
0.999044
1.00244
1.00643
1.0109
1.01463
1.01703
1.01849
1.01966
1.0198
1.01725
1.01362
1.00947
1.00369
0.997812
0.993712
0.98993
0.987456
0.986131
0.990604
1.01174
1.0114
1.02202
1.01978
1.02156
1.02213
1.02341
1.0248
1.02617
1.02722
1.02818
1.02916
1.02996
1.03102
1.03222
1.03332
1.03413
1.0352
1.0364
1.03718
1.03784
1.03932
1.04044
1.04009
1.04004
1.04042
1.04138
1.04264
1.04311
1.04352
1.04427
1.04432
1.04398
1.04409
1.04426
1.04418
1.04386
1.04407
1.04365
1.04318
1.04277
1.04199
1.04122
1.04051
1.03961
1.03875
1.03778
1.0366
1.03553
1.03445
1.03321
1.03171
1.02991
1.02823
1.02657
1.02475
1.02291
1.02101
1.01891
1.0164
1.0136
1.01056
1.00738
1.00432
1.00107
0.997493
0.99375
0.989959
0.985991
0.981974
0.978025
0.973148
0.96561
0.959463
0.957447
0.954372
0.948098
0.94282
0.937006
0.931322
0.925355
0.919569
0.912668
0.906278
0.899364
0.892586
0.884124
0.878175
0.873636
0.870794
0.866636
0.865846
0.862182
0.867009
0.867753
0.872172
0.879154
0.880497
0.887153
0.890647
0.898166
0.903524
0.909151
0.914024
0.920887
0.927076
0.933354
0.938829
0.943488
0.948003
0.95305
0.958517
0.963089
0.967409
0.971438
0.975429
0.979668
0.984329
0.989448
0.994184
0.998745
1.00357
1.0086
1.01367
1.01885
1.02417
1.02978
1.03586
1.04185
1.04724
1.05276
1.0588
1.06526
1.07226
1.07984
1.08776
1.09555
1.10337
1.11221
1.1224
1.13348
1.14446
1.15588
1.1696
1.18502
1.20269
1.22225
1.24028
1.2534
1.27007
1.27803
1.26386
1.23913
1.15109
1.07606
0.955026
0.876673
0.830988
0.828784
0.78346
0.738237
0.710794
0.693196
0.669038
0.662631
0.65907
0.65302
0.648667
0.647045
0.654029
0.655606
0.651211
0.651444
0.655492
0.656526
0.656823
0.658573
0.661451
0.661632
0.660481
0.66104
0.660459
0.658747
0.658522
0.658267
0.658529
0.658063
0.656483
0.653731
0.649766
0.647778
0.645704
0.642824
0.642159
0.641697
0.640631
0.640504
0.640588
0.639541
0.636938
0.631725
0.627891
0.623523
0.621959
0.622467
0.621835
0.619611
0.617615
0.615473
0.612815
0.608072
0.605822
0.601862
0.599752
0.596868
0.597788
0.593089
0.596287
0.595609
0.58789
0.590046
0.587473
0.58415
0.583665
0.610387
0.6899
0.747371
0.772468
0.784577
0.791121
0.796245
0.800586
0.804609
0.809267
0.815074
0.818594
0.823195
0.82973
0.837842
0.842525
0.845199
0.850046
0.857249
0.862847
0.866046
0.869856
0.874824
0.878764
0.882405
0.887905
0.892643
0.896844
0.900986
0.905036
0.908591
0.911557
0.914445
0.917443
0.920409
0.922928
0.925067
0.927335
0.929966
0.932597
0.93485
0.936592
0.937931
0.939259
0.94068
0.94201
0.943112
0.943924
0.944462
0.944736
0.944689
0.944525
0.944634
0.94515
0.945959
0.946681
0.947049
0.947176
0.947333
0.947618
0.948167
0.948703
0.949107
0.94946
0.949765
0.950132
0.950664
0.951292
0.951784
0.952004
0.951993
0.95175
0.951581
0.951532
0.951398
0.95166
0.952637
0.953944
0.954032
0.955868
0.940298
0.964001
0.975299
0.978594
0.980778
0.983991
0.989678
0.995487
1.00068
1.00749
1.01283
1.01577
1.01884
1.0199
1.01854
1.01708
1.01434
1.01085
1.00641
1.00243
0.99903
0.996205
0.993952
0.992166
0.990698
0.989496
0.988432
0.987491
0.986723
0.986201
0.986011
0.986271
0.986375
0.986375
0.986271
0.986012
0.986202
0.986724
0.987494
0.988435
0.989501
0.990704
0.992173
0.993974
0.996232
0.999055
1.00245
1.00643
1.01091
1.01514
1.01743
1.01867
1.01886
1.01933
1.01739
1.01342
1.01035
1.0075
1.00203
0.998424
0.996241
0.995049
0.995232
0.999056
1.00948
1.01393
1.01933
1.0198
1.02097
1.02207
1.02325
1.02448
1.02572
1.02683
1.02782
1.02888
1.02983
1.03091
1.03198
1.03305
1.0339
1.03479
1.03579
1.03658
1.03734
1.03851
1.03964
1.03993
1.04013
1.04063
1.04134
1.04225
1.04267
1.04295
1.04364
1.04399
1.04401
1.04418
1.04421
1.04393
1.04364
1.04341
1.04309
1.04273
1.04239
1.0418
1.04118
1.04059
1.03984
1.03905
1.03814
1.03696
1.03581
1.03462
1.03332
1.03185
1.03008
1.02826
1.02647
1.02459
1.02274
1.02082
1.01864
1.01606
1.01339
1.01059
1.00759
1.00436
1.00093
0.997617
0.994184
0.990516
0.98662
0.982631
0.978669
0.973758
0.966164
0.959969
0.957731
0.954878
0.949336
0.944042
0.937986
0.932128
0.926505
0.920888
0.914142
0.907882
0.901414
0.895513
0.889513
0.88483
0.879137
0.876256
0.872758
0.872835
0.870023
0.873836
0.873437
0.877958
0.885065
0.887328
0.894077
0.897124
0.903619
0.908765
0.914413
0.919607
0.926415
0.931303
0.937153
0.942054
0.946161
0.950273
0.955165
0.960392
0.964851
0.969172
0.973347
0.977389
0.981563
0.986311
0.991115
0.995972
1.00076
1.00549
1.01047
1.01553
1.02074
1.02616
1.03181
1.03773
1.04366
1.04922
1.05488
1.06097
1.06749
1.0745
1.082
1.0899
1.09794
1.10617
1.11512
1.12516
1.13613
1.14744
1.15934
1.17275
1.18735
1.20169
1.21846
1.23509
1.2521
1.26545
1.27016
1.24885
1.22224
1.15853
1.09627
1.00631
0.94339
0.88782
0.85905
0.817175
0.776462
0.742204
0.719651
0.697865
0.687165
0.677661
0.668488
0.668428
0.670041
0.667566
0.66256
0.663673
0.669503
0.669469
0.667144
0.669306
0.673196
0.67422
0.673031
0.673559
0.674336
0.672701
0.671772
0.672019
0.671255
0.671463
0.670246
0.667686
0.666341
0.664058
0.660471
0.657114
0.654998
0.654558
0.653186
0.652749
0.653903
0.652996
0.651012
0.649565
0.645406
0.641179
0.637374
0.635954
0.63467
0.632266
0.629642
0.6296
0.628176
0.624834
0.619478
0.616473
0.61208
0.61125
0.610129
0.610706
0.604697
0.605914
0.605835
0.600521
0.602314
0.598157
0.593677
0.594235
0.622096
0.694835
0.7493
0.772672
0.784461
0.791365
0.797049
0.801898
0.806539
0.810498
0.814544
0.819283
0.824604
0.830281
0.83755
0.842738
0.84635
0.851486
0.858525
0.863991
0.867134
0.87074
0.875704
0.880652
0.884265
0.887674
0.891621
0.895765
0.89974
0.903623
0.907363
0.910829
0.91412
0.917169
0.919962
0.92261
0.92517
0.927594
0.929813
0.931872
0.933957
0.936012
0.937831
0.939312
0.940474
0.94133
0.941968
0.942525
0.94304
0.943474
0.943848
0.944298
0.944778
0.94528
0.945712
0.946095
0.946543
0.947059
0.947557
0.947967
0.948309
0.948612
0.948983
0.949359
0.949608
0.949807
0.950039
0.950361
0.950732
0.951118
0.95154
0.951745
0.952071
0.952543
0.95286
0.953071
0.953086
0.952601
0.951576
0.95225
0.954308
0.961657
0.965865
0.969918
0.973033
0.977324
0.983228
0.990441
0.997505
1.00386
1.01008
1.01369
1.01658
1.01923
1.01854
1.01722
1.01419
1.01077
1.00636
1.00241
0.99901
0.996192
0.993943
0.992161
0.990696
0.989493
0.98843
0.98749
0.986722
0.9862
0.98601
0.98627
0.986375
0.986376
0.986272
0.986012
0.986203
0.986725
0.987496
0.988437
0.989503
0.990708
0.992179
0.993984
0.996248
0.999061
1.00246
1.00641
1.01088
1.01544
1.01825
1.0194
1.01862
1.0185
1.017
1.01351
1.01074
1.00943
1.00644
1.00318
1.00154
1.00061
1.00201
1.00604
1.01169
1.01499
1.01836
1.01997
1.02106
1.02216
1.02338
1.0246
1.02575
1.0268
1.0278
1.02886
1.02987
1.03099
1.03203
1.03305
1.03388
1.03477
1.03566
1.03636
1.03715
1.03823
1.03934
1.0398
1.04018
1.04075
1.04143
1.04217
1.04249
1.04267
1.04339
1.04385
1.044
1.04417
1.04414
1.04382
1.04349
1.04324
1.04294
1.04263
1.04232
1.0418
1.04127
1.04071
1.04001
1.03929
1.03837
1.03717
1.03596
1.0347
1.03337
1.03191
1.03022
1.02847
1.02668
1.02481
1.02299
1.02107
1.01883
1.01605
1.01326
1.01062
1.00785
1.00464
1.00138
0.998494
0.995242
0.99164
0.987794
0.983872
0.97999
0.975188
0.967598
0.961185
0.958703
0.956475
0.951108
0.945532
0.939294
0.933767
0.928535
0.923083
0.916514
0.910641
0.905148
0.900371
0.89583
0.891774
0.885746
0.881051
0.875952
0.877015
0.876005
0.880945
0.88033
0.882362
0.887837
0.891299
0.899559
0.904458
0.909402
0.913145
0.918621
0.923357
0.930757
0.93592
0.939798
0.945063
0.949574
0.953376
0.957531
0.962289
0.966757
0.971548
0.976034
0.980217
0.98435
0.988734
0.993011
0.997276
1.00183
1.00675
1.0119
1.01718
1.02258
1.02811
1.03387
1.03985
1.04565
1.05101
1.05663
1.06274
1.0692
1.07615
1.08371
1.09168
1.09977
1.10821
1.11748
1.12764
1.13849
1.1497
1.1617
1.17516
1.18931
1.2057
1.22281
1.23848
1.25186
1.26467
1.26845
1.25551
1.23268
1.17661
1.11838
1.03819
0.971771
0.915208
0.880426
0.838859
0.798307
0.760633
0.738142
0.716423
0.699587
0.687761
0.683765
0.685377
0.680257
0.67097
0.670704
0.678237
0.68184
0.675489
0.674843
0.681296
0.68445
0.681423
0.682401
0.685833
0.684236
0.682616
0.683821
0.682317
0.680692
0.680402
0.678211
0.678247
0.680221
0.676211
0.668467
0.665815
0.666689
0.664545
0.663553
0.666
0.665644
0.661637
0.661816
0.662536
0.657127
0.653535
0.650277
0.646436
0.641958
0.639865
0.6414
0.643173
0.638306
0.6328
0.628657
0.626576
0.624199
0.625767
0.623417
0.620425
0.611907
0.615432
0.618872
0.613529
0.611224
0.60499
0.603923
0.606758
0.633404
0.704586
0.753937
0.775025
0.785272
0.791804
0.797688
0.802904
0.808143
0.812223
0.815243
0.820838
0.825356
0.830374
0.837274
0.842823
0.846933
0.852165
0.859163
0.864714
0.867743
0.871094
0.875932
0.88158
0.885551
0.887884
0.891287
0.895399
0.899267
0.903016
0.906811
0.910487
0.91398
0.9171
0.919816
0.922496
0.925294
0.927759
0.929584
0.931346
0.933333
0.935451
0.937416
0.938925
0.93994
0.940632
0.941096
0.941541
0.942029
0.942561
0.943208
0.944033
0.944782
0.945305
0.945587
0.945816
0.946243
0.946959
0.947763
0.948292
0.948449
0.948516
0.948816
0.949237
0.949568
0.949803
0.949911
0.94997
0.950093
0.950416
0.951079
0.951806
0.952564
0.953274
0.953706
0.95387
0.953581
0.953006
0.953056
0.954302
0.956205
0.960641
0.964053
0.967292
0.969834
0.972675
0.977433
0.984141
0.992178
1.00024
1.00745
1.01292
1.01523
1.01808
1.01843
1.01734
1.01416
1.01063
1.0063
1.00239
0.998988
0.996179
0.993934
0.992156
0.990694
0.989491
0.988428
0.987489
0.986721
0.986199
0.986009
0.986271
0.986374
0.986376
0.986273
0.986012
0.986203
0.986726
0.987497
0.988438
0.989506
0.990711
0.992184
0.993991
0.996261
0.999065
1.00246
1.00635
1.01081
1.01556
1.01884
1.02038
1.0197
1.01897
1.01748
1.01525
1.0116
1.00921
1.00769
1.00543
1.00445
1.00431
1.00633
1.00904
1.0126
1.01544
1.01794
1.01969
1.02102
1.02222
1.02346
1.02462
1.02573
1.02677
1.02776
1.02881
1.02984
1.03095
1.03202
1.03308
1.03397
1.03486
1.03575
1.03648
1.03722
1.03813
1.03912
1.03969
1.04014
1.04076
1.04145
1.04213
1.04251
1.04275
1.04332
1.04371
1.04383
1.04395
1.04398
1.04377
1.04355
1.04337
1.04311
1.0428
1.0424
1.04184
1.04126
1.04066
1.03995
1.03921
1.0383
1.03712
1.03595
1.03473
1.03341
1.03193
1.03027
1.02871
1.02704
1.02524
1.02343
1.02152
1.01934
1.01671
1.01398
1.01129
1.00855
1.00562
1.00255
0.999466
0.996088
0.992485
0.988696
0.984815
0.980936
0.976276
0.96934
0.963503
0.960842
0.958133
0.952717
0.947532
0.941825
0.936331
0.931009
0.925765
0.919645
0.914079
0.908869
0.904303
0.898839
0.895084
0.891615
0.887527
0.880387
0.878573
0.877637
0.884304
0.886357
0.888343
0.89129
0.892468
0.901152
0.907992
0.914592
0.918339
0.922937
0.92654
0.93274
0.939492
0.943264
0.946818
0.951649
0.956346
0.96091
0.96546
0.969383
0.973431
0.977746
0.982246
0.986829
0.991579
0.996043
1.00025
1.00441
1.00884
1.01354
1.01851
1.02375
1.02928
1.03518
1.04137
1.04736
1.05293
1.05864
1.0648
1.07129
1.07812
1.08547
1.09343
1.10163
1.11019
1.11948
1.1296
1.14038
1.15161
1.16367
1.17697
1.19092
1.20718
1.22287
1.23822
1.25123
1.26254
1.26551
1.25394
1.23204
1.1836
1.12938
1.05626
0.992572
0.936268
0.897343
0.85679
0.814601
0.777366
0.756343
0.730068
0.708913
0.700206
0.698694
0.693686
0.681184
0.676139
0.683021
0.689272
0.685039
0.678745
0.68402
0.690842
0.688436
0.686396
0.691883
0.69369
0.689635
0.691057
0.691334
0.687762
0.687789
0.687529
0.687029
0.690012
0.689413
0.680365
0.672858
0.675383
0.67552
0.672077
0.674235
0.675301
0.670812
0.668514
0.672502
0.670825
0.662955
0.66009
0.655795
0.649604
0.647399
0.650534
0.653234
0.649779
0.641722
0.639758
0.639873
0.639393
0.637529
0.635594
0.628955
0.624187
0.620101
0.627513
0.629216
0.618789
0.614397
0.612981
0.615526
0.614363
0.637754
0.713409
0.761175
0.780693
0.79005
0.795829
0.800841
0.805393
0.809886
0.813826
0.817588
0.822377
0.826079
0.831358
0.838723
0.843891
0.847529
0.85245
0.859342
0.86486
0.868025
0.871383
0.875932
0.880917
0.885288
0.888727
0.892349
0.896287
0.900083
0.903784
0.907478
0.910954
0.914248
0.917187
0.919951
0.922668
0.925272
0.927563
0.929451
0.931329
0.933264
0.935166
0.936935
0.938458
0.939678
0.940543
0.941137
0.941575
0.941953
0.942416
0.943056
0.943888
0.944683
0.945293
0.945705
0.946029
0.946402
0.946979
0.947666
0.948228
0.948432
0.948492
0.948769
0.949236
0.949671
0.949989
0.950114
0.95017
0.950271
0.950454
0.950944
0.951607
0.952319
0.952965
0.953427
0.953707
0.953769
0.953478
0.953733
0.954671
0.956951
0.960643
0.964046
0.96703
0.969778
0.972128
0.974909
0.979606
0.986979
0.996582
1.00578
1.01273
1.01547
1.01684
1.01807
1.01725
1.01416
1.01038
1.00619
1.00236
0.998965
0.996168
0.993926
0.992151
0.990691
0.989489
0.988427
0.987488
0.98672
0.986198
0.986008
0.986271
0.986374
0.986377
0.986273
0.986012
0.986204
0.986727
0.987499
0.98844
0.989508
0.990715
0.992188
0.993998
0.996272
0.999066
1.00247
1.00632
1.01066
1.01558
1.01907
1.02093
1.02189
1.0208
1.01906
1.01729
1.01362
1.00875
1.00726
1.00626
1.00611
1.00705
1.00905
1.01126
1.01381
1.01586
1.01794
1.01965
1.02105
1.02233
1.0236
1.02475
1.02586
1.0269
1.02788
1.02891
1.02991
1.031
1.03206
1.03316
1.03413
1.0351
1.03602
1.03679
1.03752
1.03829
1.03913
1.03968
1.04011
1.04075
1.04148
1.04221
1.0427
1.04303
1.04344
1.04368
1.04369
1.04378
1.04392
1.04391
1.04384
1.04374
1.04344
1.04305
1.04255
1.04189
1.04125
1.04061
1.03991
1.03922
1.03838
1.03735
1.03633
1.03521
1.03395
1.03243
1.03067
1.02904
1.02742
1.02568
1.02389
1.02199
1.01993
1.01767
1.01539
1.01277
1.00997
1.00705
1.00364
1.00023
0.996915
0.993515
0.989857
0.986096
0.982275
0.977509
0.970616
0.965377
0.963177
0.959788
0.954607
0.950573
0.945484
0.940051
0.934474
0.92905
0.922661
0.916816
0.911041
0.905831
0.898891
0.895015
0.893211
0.892357
0.88699
0.882898
0.878316
0.884117
0.887863
0.89313
0.897327
0.896394
0.901333
0.907671
0.916367
0.922055
0.926336
0.930253
0.934314
0.94061
0.946895
0.94986
0.952998
0.957286
0.962715
0.968045
0.972436
0.975911
0.979231
0.982977
0.987286
0.99238
0.9976
1.00254
1.00705
1.01157
1.01608
1.02065
1.02546
1.03057
1.03609
1.04196
1.04792
1.05381
1.05975
1.06607
1.0728
1.07985
1.08721
1.09505
1.10327
1.11192
1.12127
1.13132
1.142
1.15319
1.16531
1.17834
1.19215
1.20806
1.22311
1.23733
1.24929
1.25905
1.26134
1.25096
1.23094
1.18877
1.13853
1.07155
1.01085
0.954731
0.912833
0.871645
0.829278
0.79483
0.770862
0.740113
0.719259
0.713721
0.707288
0.696755
0.684485
0.686815
0.694703
0.693467
0.684656
0.685878
0.693669
0.694589
0.689678
0.693699
0.699507
0.696526
0.694946
0.697791
0.694809
0.693123
0.695214
0.695425
0.69719
0.69716
0.69119
0.681385
0.680875
0.684771
0.679977
0.679114
0.681577
0.67848
0.673933
0.67781
0.679807
0.674377
0.667603
0.663837
0.657796
0.654636
0.658365
0.661915
0.657689
0.649901
0.646337
0.650479
0.650305
0.647939
0.64323
0.637445
0.630218
0.631347
0.63291
0.635831
0.631776
0.619174
0.620745
0.624591
0.622204
0.615975
0.638728
0.718127
0.768337
0.787389
0.796931
0.802622
0.806879
0.810446
0.813859
0.816603
0.820327
0.824142
0.828563
0.834275
0.841747
0.846686
0.849739
0.854254
0.860773
0.866161
0.869569
0.87307
0.877247
0.880537
0.884461
0.889268
0.893503
0.897327
0.901153
0.904943
0.908584
0.911773
0.914576
0.917315
0.920139
0.922857
0.925176
0.927256
0.929426
0.931648
0.933673
0.935301
0.936721
0.938141
0.939537
0.940738
0.941656
0.942251
0.942648
0.943042
0.943462
0.944012
0.944555
0.94513
0.945797
0.946436
0.9469
0.947177
0.947458
0.94784
0.948238
0.948525
0.948862
0.949291
0.949717
0.950062
0.950345
0.950618
0.950847
0.951011
0.951247
0.951476
0.951727
0.952005
0.952391
0.953059
0.953883
0.954157
0.954459
0.95531
0.95781
0.960288
0.963245
0.966227
0.968789
0.971429
0.974438
0.977808
0.983763
0.992545
1.00298
1.01107
1.01559
1.01612
1.01737
1.01678
1.01411
1.01015
1.00607
1.00233
0.99894
0.996159
0.99392
0.992145
0.990687
0.989487
0.988425
0.987487
0.986718
0.986198
0.986007
0.986271
0.986374
0.986377
0.986274
0.986013
0.986205
0.986728
0.9875
0.988442
0.989511
0.990719
0.992192
0.994004
0.996281
0.99907
1.00248
1.00631
1.01054
1.01547
1.01902
1.02097
1.02287
1.02201
1.01997
1.01774
1.01541
1.0111
1.00798
1.00728
1.00771
1.00902
1.01076
1.01321
1.01478
1.01637
1.01827
1.01988
1.02128
1.02255
1.02381
1.02497
1.0261
1.02718
1.02818
1.0292
1.03017
1.0312
1.03219
1.03326
1.03426
1.03528
1.03626
1.03712
1.03791
1.03858
1.03931
1.03985
1.04031
1.04093
1.0416
1.04233
1.04293
1.04331
1.04366
1.04381
1.04383
1.04393
1.0441
1.04416
1.04413
1.044
1.0437
1.04334
1.04287
1.0423
1.04174
1.04115
1.04051
1.03985
1.03904
1.03808
1.03712
1.03604
1.03481
1.03335
1.03167
1.03003
1.02843
1.02675
1.02503
1.02319
1.02115
1.01892
1.01675
1.01425
1.01161
1.00894
1.00594
1.00264
0.999193
0.995776
0.992161
0.988397
0.984541
0.979931
0.97395
0.969098
0.96679
0.963191
0.957634
0.953369
0.948276
0.943555
0.938348
0.93316
0.927182
0.921407
0.915388
0.909865
0.90202
0.895757
0.891755
0.892157
0.890257
0.889396
0.883387
0.884557
0.886321
0.893334
0.900629
0.902773
0.905036
0.907485
0.915389
0.922345
0.927428
0.932655
0.937361
0.940629
0.947643
0.953045
0.956226
0.959177
0.963368
0.968487
0.973726
0.978321
0.982084
0.985247
0.98857
0.992728
0.997416
1.00259
1.00772
1.01276
1.01784
1.02291
1.02798
1.03299
1.03812
1.04346
1.04904
1.05483
1.06081
1.06714
1.07395
1.08117
1.08874
1.09654
1.10479
1.11346
1.12275
1.13265
1.14328
1.15451
1.16655
1.17934
1.19298
1.20813
1.22232
1.23552
1.24644
1.25482
1.25637
1.24654
1.22782
1.19031
1.14384
1.08299
1.02521
0.970845
0.927091
0.885091
0.843998
0.81053
0.781692
0.748819
0.732221
0.724478
0.713186
0.697697
0.693522
0.699137
0.698949
0.692059
0.688446
0.695125
0.697751
0.69376
0.694464
0.701423
0.702261
0.698006
0.701129
0.701463
0.697819
0.699984
0.700446
0.700772
0.70138
0.697578
0.690324
0.687565
0.691001
0.68781
0.681921
0.683939
0.683668
0.678963
0.681144
0.685552
0.681654
0.677714
0.676069
0.671068
0.665349
0.666441
0.668184
0.664195
0.655804
0.652342
0.656592
0.658127
0.652532
0.648277
0.641915
0.637306
0.636951
0.643437
0.639365
0.635762
0.630308
0.624658
0.631954
0.630321
0.621789
0.617817
0.645425
0.729384
0.781537
0.797925
0.805306
0.809718
0.813068
0.81608
0.819122
0.821503
0.824724
0.828394
0.832767
0.837717
0.844481
0.849563
0.85281
0.857301
0.863475
0.868642
0.872095
0.875649
0.87954
0.882348
0.885397
0.890077
0.894464
0.898275
0.902052
0.905744
0.909215
0.912285
0.915121
0.91792
0.920677
0.923215
0.925401
0.927469
0.929774
0.932158
0.93412
0.935616
0.936902
0.938221
0.939658
0.94107
0.942227
0.943078
0.943628
0.944008
0.944285
0.944474
0.944714
0.945147
0.945827
0.946615
0.947245
0.94748
0.947457
0.947546
0.948023
0.948599
0.948994
0.949334
0.9497
0.950066
0.95043
0.950844
0.951206
0.951429
0.951533
0.951585
0.951481
0.951417
0.951653
0.952355
0.953486
0.954585
0.955622
0.956897
0.958279
0.96002
0.961645
0.963902
0.965934
0.968846
0.972676
0.976666
0.981178
0.988265
0.998607
1.00795
1.01467
1.01573
1.01629
1.01592
1.014
1.01
1.00601
1.00229
0.998918
0.996153
0.993916
0.992142
0.990682
0.989486
0.988423
0.987486
0.986717
0.986197
0.986007
0.98627
0.986373
0.986377
0.986274
0.986014
0.986206
0.986729
0.9875
0.988443
0.989513
0.990721
0.992196
0.994009
0.996288
0.999073
1.0025
1.00632
1.0105
1.01516
1.01875
1.02075
1.02269
1.02179
1.01976
1.01708
1.01576
1.0144
1.01133
1.00978
1.00964
1.01043
1.01229
1.01477
1.01607
1.01721
1.01894
1.02039
1.02174
1.02298
1.02419
1.02533
1.02647
1.02757
1.02861
1.02965
1.03064
1.03161
1.03251
1.03352
1.03449
1.03552
1.03654
1.03746
1.03836
1.03914
1.03984
1.04035
1.04076
1.04126
1.0419
1.04259
1.04317
1.04356
1.04402
1.0443
1.04437
1.04441
1.04446
1.04443
1.04437
1.0443
1.04419
1.044
1.04372
1.04331
1.04286
1.0423
1.04164
1.04091
1.03996
1.03885
1.03774
1.03655
1.03532
1.03397
1.03257
1.0313
1.02998
1.0285
1.02693
1.02514
1.02309
1.02094
1.01868
1.01601
1.0131
1.0106
1.00845
1.00572
1.00249
0.99913
0.995618
0.991939
0.988059
0.983318
0.977248
0.97261
0.970281
0.967075
0.961594
0.956536
0.95067
0.945226
0.940102
0.935203
0.929795
0.924609
0.919075
0.914104
0.908142
0.901111
0.892628
0.890206
0.889282
0.891516
0.889677
0.88955
0.887061
0.891636
0.899789
0.904977
0.910476
0.911794
0.915954
0.921418
0.927266
0.933138
0.939885
0.942774
0.946913
0.953237
0.958175
0.962079
0.965452
0.969131
0.973414
0.978522
0.98325
0.987413
0.991236
0.994801
0.998417
1.00266
1.00742
1.01252
1.01796
1.02344
1.02885
1.03423
1.0397
1.04529
1.05086
1.05644
1.0623
1.06848
1.07511
1.08236
1.09003
1.09788
1.10604
1.11473
1.12402
1.13393
1.14445
1.15552
1.16744
1.18004
1.19338
1.2076
1.22086
1.23308
1.24304
1.25026
1.25108
1.2416
1.22394
1.1902
1.14753
1.09209
1.03727
0.984805
0.940153
0.897207
0.857982
0.823108
0.789708
0.759001
0.744824
0.731934
0.714652
0.70391
0.705657
0.704953
0.700822
0.692723
0.696354
0.701486
0.699532
0.695528
0.701365
0.704578
0.70174
0.702303
0.70573
0.703052
0.703072
0.704571
0.702548
0.702735
0.701128
0.696319
0.694416
0.69726
0.694164
0.68648
0.685587
0.686869
0.683891
0.683848
0.689444
0.687378
0.682058
0.68453
0.684104
0.679721
0.676325
0.673627
0.669123
0.661321
0.656976
0.66163
0.663757
0.658562
0.650818
0.647352
0.643255
0.644124
0.648876
0.648395
0.638188
0.634024
0.634864
0.636508
0.637136
0.629292
0.62146
0.625533
0.654643
0.739251
0.791917
0.805314
0.810687
0.813951
0.817051
0.819719
0.822479
0.826267
0.831195
0.834261
0.836448
0.840382
0.846402
0.851228
0.854725
0.859297
0.865259
0.870297
0.873572
0.876928
0.880945
0.884891
0.888477
0.892131
0.895933
0.899706
0.903193
0.9064
0.909446
0.912401
0.915435
0.918421
0.921163
0.923568
0.925849
0.928185
0.930511
0.932593
0.934361
0.935928
0.937344
0.938767
0.940144
0.941375
0.942442
0.943348
0.944005
0.94445
0.944755
0.944979
0.945144
0.945478
0.946035
0.946589
0.94713
0.94753
0.947641
0.947757
0.948151
0.948774
0.949189
0.949423
0.949681
0.950024
0.950357
0.950683
0.951076
0.951384
0.951573
0.951668
0.95176
0.951842
0.952119
0.95284
0.954086
0.955689
0.957201
0.958537
0.959477
0.960335
0.961477
0.96273
0.96401
0.967367
0.970718
0.974367
0.978393
0.984113
0.994305
1.0052
1.01241
1.01512
1.01515
1.01491
1.01379
1.00992
1.00597
1.00225
0.998897
0.996148
0.993914
0.992139
0.990678
0.989483
0.988422
0.987484
0.986717
0.986197
0.986006
0.986269
0.986373
0.986377
0.986275
0.986014
0.986207
0.98673
0.987501
0.988445
0.989516
0.990724
0.992201
0.994015
0.996293
0.999081
1.00252
1.00637
1.01054
1.01488
1.0186
1.0209
1.02173
1.02118
1.01944
1.01659
1.01515
1.01514
1.01416
1.01259
1.01168
1.01234
1.01304
1.01527
1.01772
1.01902
1.02032
1.02138
1.02252
1.02362
1.02472
1.02578
1.0269
1.028
1.02906
1.03014
1.03115
1.0321
1.03298
1.03387
1.03471
1.03567
1.03669
1.03772
1.03874
1.03971
1.04052
1.04113
1.04159
1.04202
1.04239
1.04286
1.04339
1.04387
1.04447
1.04494
1.04515
1.04519
1.04509
1.04492
1.04475
1.04465
1.04462
1.04459
1.04446
1.0442
1.04386
1.0434
1.04282
1.04219
1.04135
1.04034
1.03925
1.03805
1.03677
1.03542
1.03414
1.033
1.03177
1.03038
1.02886
1.02708
1.025
1.02278
1.02047
1.01783
1.01505
1.01208
1.00923
1.00696
1.00432
1.00127
0.997971
0.994584
0.991014
0.986419
0.979514
0.973911
0.971413
0.968666
0.964123
0.959547
0.954038
0.948061
0.942138
0.936113
0.929786
0.924583
0.919313
0.914608
0.910173
0.906396
0.898781
0.89209
0.887716
0.889984
0.891005
0.894462
0.892823
0.892971
0.898059
0.903492
0.911661
0.916682
0.920287
0.923165
0.928603
0.933167
0.940193
0.945904
0.948196
0.952518
0.957864
0.962913
0.96747
0.971396
0.974323
0.978269
0.98286
0.987698
0.992277
0.996648
1.00084
1.0045
1.00857
1.01307
1.01792
1.02313
1.02872
1.03452
1.04049
1.0464
1.0521
1.0578
1.0637
1.06987
1.07637
1.08345
1.09108
1.09899
1.1071
1.11573
1.12499
1.13491
1.1454
1.15634
1.16801
1.18029
1.19319
1.20657
1.21894
1.23025
1.23934
1.24556
1.24569
1.2365
1.21971
1.18924
1.14962
1.09901
1.04722
0.996735
0.951461
0.90915
0.87146
0.83417
0.798381
0.773411
0.755624
0.737208
0.718627
0.715205
0.713984
0.708488
0.698392
0.697664
0.704055
0.704263
0.698592
0.700646
0.706147
0.705963
0.703411
0.707682
0.70774
0.70554
0.707693
0.705906
0.703681
0.703521
0.700966
0.699479
0.703095
0.701027
0.693347
0.687327
0.690772
0.689302
0.687604
0.691828
0.691743
0.686202
0.686413
0.690418
0.685934
0.682343
0.679053
0.673694
0.665775
0.661951
0.664959
0.668722
0.664066
0.656815
0.653388
0.652867
0.652754
0.655178
0.652506
0.646686
0.636575
0.638544
0.645946
0.64143
0.635727
0.627953
0.627912
0.63337
0.655755
0.739073
0.7933
0.80764
0.815514
0.820514
0.824271
0.826618
0.829711
0.834248
0.838789
0.841243
0.842166
0.844762
0.850268
0.855854
0.859828
0.864331
0.869857
0.874964
0.87827
0.881401
0.885523
0.889721
0.892659
0.895371
0.898468
0.901953
0.905114
0.907916
0.910556
0.913092
0.915823
0.91873
0.92149
0.924013
0.926519
0.92909
0.931304
0.933029
0.934582
0.936251
0.937893
0.939297
0.940431
0.941363
0.942184
0.942986
0.943681
0.944229
0.944646
0.945114
0.945581
0.94604
0.946413
0.946643
0.946936
0.947391
0.947916
0.94835
0.948685
0.949082
0.949394
0.949525
0.949665
0.949952
0.950285
0.950508
0.95076
0.951032
0.951362
0.951812
0.9524
0.952966
0.953311
0.953928
0.955197
0.956802
0.958423
0.959707
0.960515
0.961053
0.961582
0.963023
0.965141
0.967212
0.969835
0.973466
0.977234
0.982904
0.991156
1.0023
1.00976
1.01419
1.01444
1.01433
1.01351
1.00991
1.00596
1.00221
0.998878
0.996138
0.993911
0.992139
0.990675
0.989481
0.988419
0.987483
0.986716
0.986196
0.986006
0.986268
0.986373
0.986378
0.986275
0.986015
0.986207
0.986731
0.987503
0.988447
0.989518
0.990728
0.992207
0.994022
0.996298
0.999091
1.00253
1.00645
1.01064
1.01486
1.01885
1.02165
1.02169
1.02186
1.02059
1.01821
1.0151
1.01423
1.01446
1.01392
1.01366
1.01503
1.01455
1.01541
1.01805
1.02024
1.02158
1.02269
1.02384
1.0248
1.02578
1.02673
1.02774
1.02875
1.02982
1.03094
1.03203
1.03309
1.03403
1.03488
1.03561
1.03632
1.03706
1.03789
1.03885
1.03985
1.04082
1.04165
1.04234
1.04298
1.04342
1.04373
1.04396
1.0442
1.04471
1.0453
1.04572
1.04596
1.04602
1.04596
1.0458
1.04556
1.04528
1.04501
1.04473
1.04444
1.04416
1.04381
1.0434
1.04294
1.04237
1.04165
1.04085
1.03984
1.03864
1.03725
1.03578
1.03433
1.03281
1.03127
1.0297
1.02794
1.02586
1.02345
1.02125
1.01916
1.01705
1.01448
1.01076
1.00734
1.00437
1.00133
0.998049
0.994778
0.991578
0.987903
0.982406
0.976144
0.973347
0.97014
0.964988
0.960518
0.955759
0.950853
0.945224
0.938791
0.931176
0.924779
0.91871
0.913466
0.908734
0.906663
0.903069
0.898383
0.890167
0.888919
0.889174
0.895179
0.897
0.898287
0.899796
0.902316
0.910124
0.917479
0.923209
0.927261
0.931574
0.934799
0.939578
0.946596
0.951272
0.95386
0.957735
0.962405
0.967708
0.972688
0.976671
0.979611
0.983131
0.987275
0.991968
0.997158
1.00183
1.00625
1.01066
1.01493
1.01927
1.02397
1.02905
1.03448
1.04037
1.04658
1.05277
1.0587
1.06471
1.071
1.07753
1.08444
1.09188
1.09987
1.10808
1.11667
1.12585
1.13564
1.146
1.15687
1.1683
1.18018
1.19263
1.20515
1.21672
1.22721
1.23549
1.24081
1.2403
1.23141
1.2154
1.18765
1.1509
1.10434
1.05557
1.00663
0.961412
0.921154
0.883317
0.842582
0.810642
0.786886
0.763793
0.739563
0.727289
0.725417
0.718453
0.707165
0.700983
0.705675
0.708335
0.704702
0.700885
0.706046
0.708264
0.705579
0.707806
0.710661
0.70859
0.709425
0.709587
0.706068
0.706115
0.705656
0.704215
0.706816
0.707017
0.702076
0.692118
0.692079
0.694274
0.692236
0.693835
0.694286
0.690404
0.687593
0.692558
0.69211
0.684909
0.681565
0.677413
0.670642
0.66658
0.668745
0.672513
0.67011
0.661703
0.659566
0.662177
0.662763
0.660149
0.657671
0.650458
0.645024
0.640992
0.648428
0.649757
0.640653
0.634012
0.632462
0.636947
0.634802
0.652248
0.735812
0.795688
0.814731
0.824113
0.828538
0.831274
0.834054
0.838225
0.841061
0.842697
0.84552
0.847878
0.851402
0.857289
0.862481
0.865944
0.869955
0.875536
0.880812
0.884114
0.887118
0.891132
0.894888
0.897003
0.898686
0.900875
0.903721
0.906657
0.909506
0.912308
0.914901
0.917437
0.920002
0.922677
0.925331
0.927888
0.930137
0.932045
0.933652
0.935213
0.936972
0.938578
0.939807
0.940736
0.941436
0.942006
0.942579
0.943183
0.943792
0.944391
0.945047
0.945807
0.946518
0.946967
0.947167
0.9473
0.947647
0.948336
0.949035
0.949401
0.949552
0.949634
0.949735
0.949856
0.950077
0.950387
0.950703
0.950902
0.951136
0.951439
0.951969
0.952891
0.954021
0.954733
0.955314
0.956137
0.957395
0.958695
0.959888
0.960857
0.96164
0.963016
0.964776
0.966712
0.968606
0.971071
0.973199
0.977774
0.982432
0.987808
0.99794
1.0075
1.0128
1.01407
1.01417
1.01318
1.00992
1.00597
1.00219
0.998863
0.996133
0.993905
0.992137
0.990673
0.989478
0.988418
0.987482
0.986715
0.986195
0.986006
0.986267
0.986373
0.986378
0.986275
0.986016
0.986208
0.986732
0.987504
0.988449
0.989521
0.990732
0.992214
0.994029
0.996303
0.999102
1.00254
1.00654
1.01086
1.01503
1.01945
1.02269
1.02276
1.02329
1.02214
1.02037
1.01717
1.01399
1.01373
1.01428
1.01503
1.01708
1.01786
1.01707
1.01801
1.01971
1.02162
1.02327
1.02467
1.02581
1.02685
1.0278
1.02873
1.02963
1.03059
1.03163
1.03276
1.0339
1.03498
1.03599
1.03688
1.03763
1.03822
1.03885
1.03956
1.04028
1.04101
1.04169
1.04241
1.04326
1.04408
1.04471
1.04502
1.04506
1.04515
1.0454
1.04573
1.04612
1.04649
1.04672
1.04679
1.04671
1.0465
1.0462
1.04579
1.04532
1.04484
1.04431
1.04376
1.04316
1.04249
1.04181
1.04113
1.04032
1.03934
1.03803
1.03643
1.03479
1.03312
1.03152
1.03
1.02839
1.02662
1.02479
1.02314
1.02115
1.01848
1.01611
1.01331
1.00959
1.00602
1.0027
0.999233
0.995669
0.992143
0.988591
0.984474