/*--------------------------------*- C++ -*----------------------------------*\
| =========                 |                                                 |
| \\      /  F ield         | OpenFOAM: The Open Source CFD Toolbox           |
|  \\    /   O peration     | Version:  v2006                                 |
|   \\  /    A nd           | Website:  www.openfoam.com                      |
|    \\/     M anipulation  |                                                 |
\*---------------------------------------------------------------------------*/
FoamFile
{
    version     2.0;
    format      ascii;
    class       volScalarField;
    location    "185";
    object      rhoMean;
}
// * * * * * * * * * * * * * * * * * * * * * * * * * * * * * * * * * * * * * //

dimensions      [1 -3 0 0 0 0 0];


internalField   nonuniform List<scalar> 
93840
(
0.990116
0.989987
0.989819
0.990028
0.990474
0.99111
0.991874
0.99277
0.993843
0.9952
0.996915
0.999095
1.00181
1.0051
1.00894
1.01315
1.01717
1.02004
1.02131
1.02148
1.02093
1.01932
1.01663
1.0128
1.00823
1.00337
0.998818
0.994801
0.991713
0.990546
0.994749
1.01562
1.0154
1.02592
1.02376
1.02552
1.02599
1.02729
1.02862
1.02991
1.03093
1.03189
1.0329
1.03373
1.03483
1.03606
1.03715
1.03789
1.0389
1.04002
1.04068
1.04129
1.04278
1.04399
1.04378
1.0439
1.04435
1.04525
1.04643
1.04673
1.04698
1.04785
1.04807
1.04791
1.04813
1.04822
1.04798
1.04756
1.04758
1.04717
1.04674
1.04638
1.04568
1.04497
1.04432
1.04344
1.04258
1.04158
1.04033
1.03917
1.03802
1.03677
1.03534
1.0336
1.03186
1.03008
1.02816
1.02628
1.02435
1.02219
1.01961
1.01686
1.01407
1.01112
1.00798
1.00461
1.00122
0.997657
0.993928
0.989938
0.985945
0.982089
0.977382
0.969871
0.963585
0.961528
0.958846
0.952889
0.947468
0.941454
0.935644
0.92996
0.924372
0.917545
0.911306
0.904892
0.898675
0.890527
0.884511
0.879399
0.876199
0.871697
0.871009
0.868053
0.873089
0.873603
0.877488
0.884047
0.885196
0.892314
0.896142
0.903169
0.90822
0.913829
0.918828
0.92599
0.932036
0.938108
0.943551
0.948262
0.952516
0.957244
0.962556
0.96698
0.971362
0.975548
0.979617
0.983798
0.988361
0.993276
0.997843
1.00234
1.00715
1.01217
1.01724
1.02241
1.02775
1.03338
1.03945
1.04538
1.05076
1.05627
1.06227
1.06864
1.07549
1.08297
1.09087
1.09863
1.10642
1.11521
1.12534
1.13633
1.14725
1.15859
1.17221
1.1875
1.20503
1.22436
1.24212
1.25491
1.27135
1.27843
1.26385
1.23823
1.14949
1.0741
0.952004
0.873806
0.82866
0.827411
0.782155
0.737583
0.707857
0.690644
0.66842
0.659386
0.654416
0.650169
0.648921
0.647183
0.648976
0.650605
0.651361
0.652149
0.652771
0.654704
0.656816
0.658274
0.659735
0.660844
0.660883
0.660815
0.660377
0.659464
0.659041
0.659218
0.659228
0.65824
0.657099
0.655221
0.650637
0.647401
0.6465
0.645568
0.645015
0.644818
0.644292
0.643772
0.643504
0.643419
0.642252
0.637168
0.633902
0.629705
0.626712
0.625231
0.624109
0.622462
0.621364
0.619048
0.617701
0.614875
0.613479
0.610021
0.60893
0.606299
0.60621
0.600825
0.604263
0.604245
0.59678
0.598127
0.596147
0.601715
0.631879
0.694939
0.747573
0.771154
0.780892
0.786838
0.791301
0.795996
0.800417
0.805254
0.810055
0.815129
0.820182
0.825341
0.83155
0.839437
0.843924
0.846601
0.851538
0.858711
0.864384
0.867523
0.871373
0.876792
0.882038
0.886311
0.890586
0.894843
0.899027
0.903061
0.907029
0.91081
0.914233
0.917483
0.920599
0.923568
0.926362
0.928977
0.931432
0.933704
0.935793
0.937734
0.939533
0.941183
0.942686
0.944023
0.94521
0.946286
0.947257
0.948124
0.948914
0.949597
0.950184
0.950717
0.951216
0.951687
0.952144
0.952584
0.952997
0.953393
0.95378
0.954166
0.954549
0.954921
0.955268
0.955588
0.955883
0.956166
0.956428
0.956678
0.956938
0.957229
0.957524
0.957742
0.957953
0.958164
0.958443
0.958859
0.959388
0.958823
0.960103
0.944428
0.968121
0.979583
0.982934
0.985257
0.988797
0.993868
0.999696
1.00558
1.01105
1.01554
1.0186
1.0204
1.02104
1.02093
1.01979
1.01706
1.01311
1.00892
1.00509
1.0018
0.999087
0.99691
0.995196
0.99384
0.992768
0.991872
0.991109
0.990474
0.990027
0.989818
0.989987
0.990115
0.990116
0.989987
0.989819
0.990028
0.990476
0.991111
0.991875
0.992772
0.993846
0.995204
0.996922
0.999104
1.00182
1.00512
1.00897
1.01319
1.01729
1.0203
1.02171
1.02197
1.02148
1.02001
1.01762
1.01433
1.0105
1.0066
1.00314
1.00057
0.999445
1.0001
1.00344
1.01352
1.01779
1.02302
1.02356
1.02475
1.02579
1.02696
1.02815
1.02938
1.0305
1.03151
1.03256
1.03351
1.03458
1.03566
1.03674
1.03762
1.03856
1.03958
1.04038
1.04111
1.04221
1.04327
1.04356
1.04375
1.04428
1.04501
1.04595
1.04642
1.04674
1.04743
1.04772
1.04767
1.04783
1.04791
1.04768
1.04744
1.04729
1.04692
1.04653
1.04615
1.0455
1.04481
1.04414
1.04329
1.04242
1.04144
1.04022
1.03907
1.03791
1.03666
1.03524
1.03354
1.03182
1.03005
1.02815
1.02627
1.02434
1.02219
1.01964
1.01693
1.01416
1.01124
1.00814
1.00481
1.00144
0.997918
0.994227
0.990295
0.986323
0.982411
0.977743
0.970543
0.9645
0.962204
0.959379
0.953623
0.948324
0.942443
0.936748
0.93116
0.92562
0.918997
0.912928
0.906761
0.901048
0.894855
0.890263
0.885546
0.882493
0.878082
0.877495
0.874714
0.879462
0.879985
0.883985
0.889859
0.891502
0.898303
0.902279
0.909055
0.913955
0.919325
0.924127
0.930503
0.935801
0.941075
0.945888
0.95028
0.954466
0.959216
0.964274
0.968785
0.973175
0.977383
0.981482
0.985681
0.990354
0.994969
0.999689
1.00437
1.00904
1.01404
1.01912
1.02431
1.02965
1.03524
1.04118
1.04712
1.05266
1.05829
1.06432
1.07077
1.07768
1.08511
1.09298
1.10098
1.10916
1.11804
1.12804
1.13893
1.15017
1.16198
1.1753
1.18977
1.20392
1.2205
1.23688
1.25358
1.26661
1.27051
1.24889
1.22176
1.15737
1.0946
1.00444
0.9413
0.885698
0.857858
0.816453
0.774226
0.740486
0.719033
0.695064
0.682802
0.67578
0.669467
0.666524
0.663387
0.663697
0.664818
0.66524
0.665773
0.666127
0.667726
0.66973
0.671113
0.67247
0.673645
0.673717
0.67362
0.673206
0.672292
0.671803
0.671889
0.671971
0.670995
0.669859
0.66796
0.66345
0.660006
0.658895
0.657863
0.657193
0.656947
0.656376
0.655825
0.655466
0.655407
0.654237
0.649266
0.645868
0.641659
0.638548
0.636936
0.635735
0.634038
0.632864
0.630538
0.629098
0.626281
0.624777
0.621361
0.620151
0.617499
0.617349
0.612018
0.615189
0.615166
0.607866
0.608921
0.606799
0.612175
0.642158
0.701398
0.750075
0.772547
0.781985
0.787789
0.792204
0.796822
0.801216
0.805991
0.810745
0.815775
0.820843
0.825986
0.832036
0.839678
0.844237
0.847119
0.851976
0.85894
0.86448
0.867806
0.871682
0.876965
0.882137
0.886433
0.890681
0.894901
0.899054
0.903061
0.906984
0.910744
0.914164
0.917402
0.920499
0.923449
0.926232
0.928836
0.931278
0.933544
0.935628
0.93756
0.939351
0.940992
0.942489
0.943828
0.945021
0.946097
0.947068
0.947936
0.948721
0.94941
0.95001
0.950548
0.95105
0.951522
0.951975
0.952413
0.952829
0.95323
0.953619
0.954002
0.954377
0.954741
0.955083
0.955403
0.955701
0.955981
0.956243
0.956493
0.95673
0.956984
0.957262
0.957485
0.957702
0.957885
0.95797
0.957891
0.957619
0.95664
0.957138
0.959102
0.966756
0.971213
0.975418
0.978697
0.982802
0.987798
0.994231
1.00155
1.00832
1.01385
1.01757
1.0197
1.02048
1.02048
1.01949
1.01692
1.01305
1.00889
1.00507
1.00178
0.999078
0.996904
0.995192
0.993837
0.992766
0.991871
0.991108
0.990473
0.990027
0.989818
0.989986
0.990115
0.990116
0.989988
0.98982
0.990029
0.990476
0.991113
0.991877
0.992774
0.993849
0.995209
0.996928
0.999113
1.00183
1.00514
1.00899
1.01324
1.01741
1.02056
1.02212
1.02247
1.02204
1.02068
1.01849
1.0156
1.01235
1.00916
1.00656
1.00496
1.00483
1.00657
1.01024
1.0157
1.0187
1.02199
1.02361
1.02469
1.0258
1.02701
1.0282
1.02938
1.03047
1.0315
1.03255
1.03353
1.0346
1.03562
1.03666
1.03754
1.03849
1.03945
1.04021
1.04103
1.04207
1.04303
1.04341
1.0437
1.04424
1.04497
1.04581
1.04629
1.0466
1.04724
1.04756
1.04758
1.04769
1.04776
1.04759
1.04735
1.0472
1.04687
1.04648
1.04606
1.04543
1.04477
1.0441
1.04326
1.04241
1.04142
1.04023
1.03911
1.03795
1.03671
1.0353
1.03361
1.03193
1.03018
1.0283
1.02645
1.02454
1.0224
1.01987
1.01722
1.0145
1.01163
1.00858
1.0053
1.00199
0.998519
0.994893
0.991006
0.987098
0.983245
0.978629
0.97147
0.965669
0.963459
0.960599
0.954851
0.94969
0.943982
0.938445
0.932991
0.927539
0.921103
0.915249
0.909509
0.904546
0.899464
0.895348
0.890693
0.887755
0.88331
0.882793
0.88016
0.88457
0.885222
0.889094
0.894771
0.89663
0.90312
0.907329
0.913814
0.918674
0.923781
0.928476
0.934435
0.9394
0.944208
0.94866
0.95284
0.956951
0.961649
0.966661
0.971079
0.975423
0.979582
0.983627
0.987777
0.992364
0.997043
1.0016
1.00615
1.01091
1.01587
1.0209
1.02605
1.03136
1.03693
1.0428
1.04862
1.05413
1.05979
1.06591
1.07244
1.07942
1.0869
1.09474
1.10277
1.11116
1.12037
1.13046
1.14124
1.15237
1.16429
1.17765
1.19167
1.20794
1.22481
1.24023
1.25335
1.26585
1.26913
1.25572
1.23244
1.17571
1.117
1.03648
0.96988
0.913452
0.87937
0.837736
0.795921
0.760816
0.737107
0.711658
0.697337
0.688995
0.681964
0.678126
0.674483
0.673925
0.674817
0.675234
0.675687
0.675942
0.677324
0.679349
0.680887
0.682318
0.683634
0.683869
0.683836
0.683524
0.682691
0.682221
0.682321
0.682528
0.681627
0.680539
0.678635
0.67418
0.670641
0.669391
0.668339
0.667637
0.667396
0.666846
0.666312
0.665934
0.665942
0.66478
0.659874
0.656361
0.652155
0.648985
0.647296
0.646064
0.644353
0.643141
0.640814
0.639307
0.636502
0.634914
0.631538
0.630222
0.627594
0.627376
0.622132
0.625098
0.625081
0.617905
0.618714
0.616529
0.62166
0.651694
0.709185
0.754894
0.775515
0.784208
0.789643
0.79385
0.79831
0.802599
0.807283
0.81195
0.816925
0.821939
0.826947
0.832787
0.840354
0.844967
0.847842
0.852567
0.859373
0.864924
0.868295
0.872111
0.877253
0.882396
0.886695
0.8909
0.895072
0.899191
0.903159
0.907038
0.910777
0.914188
0.917408
0.920484
0.923416
0.926185
0.928775
0.931204
0.93346
0.935536
0.93746
0.939242
0.940873
0.942363
0.9437
0.944895
0.945969
0.946935
0.9478
0.948583
0.949277
0.949883
0.950427
0.950931
0.951406
0.951858
0.952296
0.952715
0.953118
0.953509
0.95389
0.954261
0.954619
0.954957
0.955276
0.955573
0.955851
0.956111
0.956355
0.956583
0.956806
0.957068
0.957315
0.957553
0.957797
0.958087
0.9583
0.958128
0.958317
0.959652
0.961548
0.965929
0.969396
0.972638
0.975401
0.978609
0.983268
0.989135
0.996681
1.00497
1.0118
1.01637
1.01893
1.01991
1.02001
1.01917
1.01677
1.013
1.00887
1.00506
1.00177
0.999069
0.996897
0.995187
0.993834
0.992764
0.991869
0.991107
0.990472
0.990026
0.989817
0.989986
0.990115
0.990116
0.989988
0.98982
0.99003
0.990477
0.991113
0.991878
0.992776
0.993852
0.995213
0.996934
0.999121
1.00184
1.00515
1.00901
1.01327
1.0175
1.02078
1.02249
1.02292
1.02253
1.02125
1.0192
1.01656
1.01368
1.01098
1.00894
1.00795
1.00829
1.01004
1.01291
1.01651
1.01907
1.02164
1.02333
1.02463
1.02584
1.02705
1.02822
1.02938
1.03048
1.03152
1.03257
1.03356
1.0346
1.03559
1.03662
1.0375
1.03843
1.03938
1.04018
1.04101
1.04194
1.04285
1.04334
1.04369
1.04426
1.04494
1.0457
1.04621
1.04655
1.04712
1.04747
1.04754
1.04764
1.0477
1.04756
1.04737
1.04718
1.04686
1.0465
1.04608
1.04547
1.04484
1.04417
1.04335
1.04251
1.04153
1.04038
1.03928
1.03814
1.03692
1.03552
1.03388
1.03224
1.03052
1.02868
1.02686
1.02497
1.02286
1.02038
1.01779
1.01512
1.01232
1.00936
1.00617
1.00294
0.999554
0.996014
0.992211
0.988357
0.984523
0.979985
0.973176
0.967627
0.965263
0.962315
0.956803
0.951817
0.946343
0.941012
0.935743
0.930465
0.924394
0.918869
0.913498
0.908799
0.903487
0.89914
0.894404
0.891527
0.887087
0.886569
0.884069
0.888216
0.888931
0.89272
0.898177
0.900246
0.906505
0.910841
0.917154
0.921992
0.926977
0.931628
0.93738
0.942316
0.947112
0.951576
0.955757
0.959862
0.964453
0.969271
0.973634
0.977885
0.981971
0.985969
0.990079
0.994592
0.999147
1.00367
1.00824
1.01295
1.01783
1.02282
1.02795
1.03323
1.03876
1.04456
1.05032
1.05587
1.0616
1.06773
1.07425
1.08122
1.08866
1.09651
1.10461
1.1131
1.12235
1.13237
1.14307
1.15425
1.16622
1.1794
1.19323
1.20934
1.22482
1.23994
1.2527
1.26371
1.26626
1.25421
1.23191
1.18297
1.12828
1.05478
0.990935
0.934708
0.896192
0.855402
0.814051
0.778085
0.752858
0.726229
0.709748
0.699894
0.691982
0.687149
0.682831
0.681406
0.681893
0.682245
0.682637
0.682886
0.684111
0.686066
0.687652
0.689117
0.69054
0.690947
0.690999
0.690785
0.690043
0.689586
0.689692
0.68998
0.68917
0.688111
0.686236
0.681865
0.678237
0.676846
0.675788
0.67508
0.674852
0.674352
0.673856
0.673492
0.673544
0.672443
0.667639
0.664026
0.659815
0.656582
0.654819
0.653568
0.651867
0.650625
0.64832
0.646759
0.643982
0.642324
0.638997
0.637592
0.634998
0.634725
0.629604
0.632307
0.632376
0.625345
0.625877
0.623693
0.628593
0.658976
0.717574
0.762631
0.780838
0.788274
0.793065
0.796943
0.801125
0.805217
0.809708
0.814217
0.819044
0.82396
0.828857
0.834449
0.84173
0.846357
0.849297
0.85391
0.860451
0.865865
0.869299
0.87308
0.878076
0.883085
0.887342
0.891489
0.895594
0.899648
0.903556
0.907369
0.911058
0.914439
0.917628
0.920669
0.923568
0.926307
0.928871
0.931275
0.933511
0.935571
0.937479
0.939244
0.940859
0.942334
0.943664
0.944856
0.945925
0.946885
0.947743
0.948522
0.949217
0.949831
0.950381
0.950889
0.951365
0.951819
0.952258
0.95268
0.953086
0.953478
0.953857
0.954222
0.954575
0.954909
0.955226
0.955524
0.955802
0.95606
0.956304
0.956533
0.956743
0.956979
0.95725
0.957533
0.957811
0.95812
0.958571
0.959201
0.960096
0.960921
0.962897
0.965463
0.968247
0.970867
0.973495
0.976614
0.980524
0.985629
0.992463
1.00115
1.00939
1.015
1.0181
1.01934
1.01957
1.01887
1.01662
1.01294
1.00884
1.00504
1.00176
0.999061
0.996891
0.995183
0.993831
0.992762
0.991868
0.991106
0.990471
0.990025
0.989817
0.989986
0.990115
0.990117
0.989988
0.989821
0.99003
0.990478
0.991115
0.99188
0.992778
0.993855
0.995217
0.99694
0.999129
1.00185
1.00517
1.00903
1.01331
1.01759
1.02099
1.02284
1.02337
1.02301
1.02181
1.01985
1.01739
1.01479
1.01244
1.01083
1.01026
1.01086
1.01249
1.01476
1.01736
1.01946
1.02171
1.02338
1.02474
1.02599
1.02722
1.02837
1.02952
1.03061
1.03165
1.0327
1.03369
1.03472
1.03569
1.03669
1.03759
1.03851
1.03944
1.04025
1.0411
1.04197
1.04283
1.04338
1.04378
1.04436
1.04503
1.04574
1.04627
1.04662
1.04715
1.04752
1.04762
1.04772
1.04777
1.04766
1.04749
1.04731
1.04701
1.04667
1.04624
1.04566
1.04505
1.04439
1.04359
1.04277
1.04181
1.04069
1.03963
1.03851
1.03731
1.03595
1.03436
1.03277
1.03109
1.0293
1.02753
1.02567
1.0236
1.02117
1.01868
1.0161
1.01341
1.01055
1.00747
1.00436
1.00109
0.997658
0.993945
0.990184
0.986431
0.981943
0.975385
0.970048
0.967829
0.964865
0.959377
0.954554
0.949295
0.944136
0.938988
0.93379
0.927816
0.922399
0.917056
0.9122
0.906535
0.902042
0.897265
0.894395
0.889971
0.889418
0.887062
0.890962
0.891741
0.895447
0.900729
0.902963
0.909025
0.913451
0.919648
0.924505
0.929427
0.934037
0.939614
0.94452
0.949314
0.953805
0.957981
0.962068
0.966551
0.971245
0.975526
0.979703
0.983726
0.98769
0.99177
0.996213
1.00071
1.00519
1.00974
1.01444
1.01928
1.02424
1.02936
1.03464
1.04017
1.04593
1.05166
1.05727
1.06306
1.06922
1.07577
1.08278
1.09024
1.09809
1.10623
1.1148
1.1241
1.13406
1.14466
1.15579
1.16782
1.18073
1.19441
1.21017
1.22501
1.23903
1.25073
1.2602
1.26211
1.25133
1.2309
1.18829
1.13763
1.07022
1.00941
0.953406
0.91168
0.870443
0.829739
0.793005
0.766251
0.73903
0.721027
0.709678
0.700741
0.694878
0.689902
0.68768
0.687661
0.687843
0.688053
0.688161
0.689192
0.691085
0.692746
0.694242
0.695712
0.69626
0.696391
0.696263
0.695608
0.695153
0.69524
0.695566
0.694846
0.693806
0.69197
0.687697
0.683979
0.682454
0.68141
0.680723
0.680525
0.680094
0.679648
0.679315
0.679411
0.678399
0.673715
0.670001
0.665784
0.662488
0.660668
0.659419
0.657748
0.656494
0.654223
0.652625
0.649883
0.648173
0.644898
0.643416
0.640868
0.640542
0.635571
0.638007
0.638211
0.631341
0.631573
0.629444
0.634093
0.664727
0.725105
0.771371
0.788314
0.79439
0.798187
0.801453
0.805163
0.808939
0.813164
0.817456
0.8221
0.826829
0.831504
0.83681
0.843824
0.848427
0.851328
0.855762
0.862031
0.867347
0.870772
0.874456
0.879281
0.884156
0.888344
0.89241
0.896426
0.900394
0.90422
0.907952
0.911571
0.914898
0.918034
0.921023
0.923872
0.926567
0.929089
0.931456
0.933659
0.935692
0.937574
0.939317
0.940911
0.942369
0.943685
0.944867
0.945927
0.946878
0.947728
0.948501
0.949194
0.949807
0.950358
0.950866
0.951343
0.951796
0.952234
0.952655
0.95306
0.953451
0.953827
0.954189
0.954537
0.954868
0.955182
0.955477
0.955753
0.956013
0.956262
0.956498
0.956719
0.956952
0.957233
0.957564
0.957939
0.958405
0.959048
0.959783
0.960678
0.961791
0.963541
0.965521
0.967597
0.970257
0.972582
0.975425
0.979009
0.983221
0.989002
0.996983
1.00634
1.01322
1.01707
1.01871
1.0191
1.01854
1.01646
1.01288
1.00881
1.00502
1.00175
0.999053
0.996885
0.995179
0.993828
0.99276
0.991867
0.991105
0.99047
0.990024
0.989816
0.989985
0.990114
0.990117
0.989989
0.989821
0.990031
0.990479
0.991115
0.991881
0.99278
0.993858
0.995222
0.996946
0.999138
1.00187
1.00518
1.00905
1.01334
1.01766
1.02119
1.02318
1.02381
1.02349
1.02234
1.02047
1.01816
1.01578
1.01374
1.01247
1.01219
1.01288
1.01431
1.01617
1.01824
1.02009
1.02204
1.0236
1.02501
1.02626
1.02748
1.02863
1.02976
1.03085
1.03188
1.03293
1.03391
1.03492
1.03588
1.03688
1.03777
1.03869
1.03962
1.04044
1.04127
1.0421
1.04293
1.04353
1.04399
1.04458
1.04522
1.0459
1.04644
1.04682
1.04731
1.04768
1.04782
1.04792
1.04798
1.0479
1.04776
1.04757
1.04731
1.04699
1.04657
1.04603
1.04546
1.04481
1.04405
1.04326
1.04233
1.04127
1.04025
1.03916
1.03801
1.03669
1.03518
1.03366
1.03204
1.03031
1.02859
1.02679
1.02478
1.02244
1.02003
1.01755
1.01497
1.01225
1.00932
1.00633
1.00318
0.999877
0.996287
0.992614
0.988909
0.984507
0.978315
0.973153
0.970796
0.96775
0.96249
0.957811
0.952627
0.947499
0.942316
0.937069
0.93104
0.925518
0.91996
0.914883
0.908925
0.904317
0.899527
0.896646
0.892279
0.891665
0.889464
0.893099
0.893972
0.89758
0.902691
0.905104
0.910952
0.91545
0.921515
0.926397
0.931304
0.935887
0.941321
0.946211
0.951018
0.955524
0.959695
0.963765
0.968166
0.972753
0.976972
0.981092
0.985072
0.989017
0.993081
0.997472
1.00192
1.0064
1.01095
1.01564
1.02047
1.02543
1.03056
1.03585
1.04138
1.04711
1.05283
1.05852
1.06438
1.07059
1.07718
1.08421
1.09167
1.09951
1.10771
1.11631
1.12553
1.13539
1.14596
1.15707
1.16901
1.1817
1.1952
1.21019
1.22419
1.23719
1.24786
1.25598
1.25716
1.24698
1.22789
1.19
1.14312
1.08188
1.02409
0.969717
0.925828
0.884383
0.843814
0.80665
0.778393
0.750494
0.73116
0.718541
0.708652
0.701836
0.696271
0.693362
0.692819
0.692787
0.692795
0.692706
0.693434
0.695087
0.696694
0.698187
0.69968
0.700337
0.700521
0.700441
0.699842
0.699359
0.699391
0.699713
0.699065
0.698036
0.696246
0.6921
0.68831
0.686655
0.685619
0.684954
0.684784
0.684424
0.68403
0.683734
0.683863
0.682948
0.678417
0.674612
0.670388
0.667025
0.665139
0.663888
0.662247
0.660982
0.658752
0.657121
0.654422
0.652667
0.649451
0.647899
0.645398
0.645019
0.640211
0.642373
0.64273
0.636056
0.635977
0.633919
0.638314
0.669044
0.731157
0.779602
0.796543
0.801987
0.805082
0.807784
0.810998
0.814406
0.818304
0.822326
0.826691
0.831159
0.835594
0.840588
0.847239
0.851747
0.854616
0.858873
0.864818
0.869943
0.873337
0.876912
0.881529
0.886181
0.890234
0.894169
0.898047
0.901873
0.905562
0.909152
0.912641
0.915864
0.918904
0.921798
0.924555
0.927165
0.929611
0.931908
0.934051
0.93603
0.937864
0.939562
0.941116
0.942538
0.943825
0.944985
0.946027
0.94696
0.947793
0.948551
0.949235
0.949847
0.950398
0.950906
0.951381
0.951833
0.95227
0.952689
0.953093
0.953482
0.953854
0.95421
0.954553
0.954878
0.955188
0.955481
0.955755
0.956017
0.956275
0.95652
0.956748
0.956994
0.957296
0.957678
0.958157
0.958767
0.959506
0.960418
0.961297
0.962483
0.963839
0.965596
0.967615
0.96947
0.972052
0.974812
0.977908
0.981793
0.986527
0.993345
1.00255
1.01094
1.01578
1.01796
1.01857
1.01818
1.01628
1.01282
1.00878
1.00501
1.00174
0.999044
0.996879
0.995175
0.993825
0.992758
0.991865
0.991104
0.99047
0.990024
0.989816
0.989985
0.990114
0.990117
0.989989
0.989822
0.990031
0.99048
0.991117
0.991883
0.992782
0.993861
0.995226
0.996952
0.999147
1.00188
1.0052
1.00907
1.01337
1.01774
1.02137
1.02352
1.02424
1.02397
1.02287
1.02108
1.01891
1.01672
1.01495
1.01397
1.0139
1.01464
1.01593
1.01752
1.01928
1.02093
1.02266
1.02413
1.02551
1.02675
1.02796
1.02908
1.03019
1.03126
1.03229
1.03332
1.03429
1.0353
1.03624
1.03723
1.03813
1.03904
1.03995
1.04077
1.0416
1.04241
1.04321
1.04384
1.04435
1.04495
1.04559
1.04623
1.04679
1.04719
1.04766
1.04804
1.0482
1.04832
1.04838
1.04833
1.04823
1.04806
1.04782
1.04752
1.04712
1.04661
1.04607
1.04545
1.04473
1.04397
1.04307
1.04207
1.0411
1.04007
1.03896
1.0377
1.03627
1.03484
1.03328
1.03163
1.02998
1.02823
1.02627
1.02401
1.0217
1.01931
1.01682
1.01418
1.01133
1.00842
1.00535
1.00212
0.998623
0.99505
0.991421
0.987075
0.981077
0.975986
0.973629
0.970512
0.965291
0.960647
0.955401
0.950207
0.944941
0.939609
0.933479
0.927858
0.922135
0.916897
0.910846
0.906242
0.901491
0.89859
0.894302
0.893621
0.891566
0.894937
0.895925
0.899427
0.904386
0.906947
0.912586
0.917121
0.923006
0.92788
0.932756
0.937319
0.942622
0.947494
0.952282
0.956781
0.960937
0.964997
0.969345
0.973855
0.978027
0.982117
0.986084
0.990041
0.994112
0.998478
1.00291
1.00739
1.01195
1.01664
1.02146
1.02643
1.03157
1.03688
1.04242
1.04813
1.05388
1.05963
1.06556
1.07182
1.07845
1.0855
1.09296
1.10077
1.10892
1.11756
1.12674
1.13659
1.14706
1.15809
1.16989
1.18235
1.19556
1.20964
1.2227
1.23472
1.24444
1.25143
1.25189
1.24211
1.2241
1.19
1.14696
1.09117
1.03632
0.983618
0.939013
0.897289
0.856962
0.819546
0.789859
0.761258
0.740489
0.72656
0.715788
0.708101
0.701962
0.698407
0.697339
0.697087
0.696951
0.69672
0.697175
0.698556
0.700035
0.701428
0.702849
0.703556
0.703761
0.703697
0.703122
0.702588
0.702543
0.702842
0.702266
0.70126
0.69953
0.695536
0.691688
0.68989
0.688848
0.688199
0.688049
0.68775
0.687402
0.687139
0.687296
0.686483
0.68213
0.678263
0.674043
0.670622
0.668674
0.667423
0.66582
0.664556
0.662377
0.660731
0.658082
0.6563
0.65315
0.651537
0.649083
0.648655
0.644022
0.645903
0.64641
0.639991
0.639585
0.637592
0.641699
0.672301
0.735823
0.78622
0.803401
0.80883
0.81182
0.814222
0.8171
0.820227
0.823902
0.827748
0.831976
0.83627
0.840462
0.845187
0.851566
0.855962
0.858688
0.862704
0.868305
0.873264
0.876564
0.879957
0.884319
0.888741
0.892635
0.896418
0.900139
0.903807
0.907341
0.91078
0.914127
0.917223
0.920143
0.922923
0.925571
0.928077
0.930427
0.932633
0.934692
0.936597
0.938363
0.939999
0.941498
0.94287
0.944113
0.945236
0.946244
0.947149
0.947959
0.948695
0.949363
0.949965
0.950508
0.95101
0.95148
0.951929
0.952361
0.952776
0.953176
0.953561
0.953929
0.95428
0.954616
0.954936
0.955242
0.955531
0.955806
0.956072
0.956342
0.956607
0.956861
0.957143
0.957491
0.957936
0.958506
0.959212
0.960028
0.960917
0.961918
0.963049
0.964422
0.965898
0.967716
0.96982
0.971768
0.974164
0.977408
0.980679
0.985006
0.990435
0.998689
1.00811
1.01419
1.01706
1.01799
1.01779
1.01608
1.01274
1.00875
1.00499
1.00172
0.999035
0.996873
0.99517
0.993822
0.992756
0.991864
0.991103
0.990469
0.990023
0.989815
0.989985
0.990114
0.990117
0.98999
0.989822
0.990032
0.99048
0.991118
0.991884
0.992785
0.993864
0.99523
0.996959
0.999156
1.00189
1.00521
1.00909
1.01341
1.01781
1.02154
1.02384
1.02468
1.02446
1.0234
1.0217
1.01966
1.01767
1.01614
1.01541
1.01552
1.0163
1.01748
1.0189
1.02044
1.02194
1.02347
1.02484
1.02618
1.02738
1.02857
1.02967
1.03076
1.03181
1.03283
1.03384
1.03482
1.03581
1.03675
1.03773
1.03862
1.03953
1.04042
1.04124
1.04206
1.04285
1.04364
1.0443
1.04486
1.04546
1.04609
1.04671
1.04728
1.04769
1.04814
1.04852
1.04872
1.04886
1.04893
1.04891
1.04883
1.04869
1.04848
1.04821
1.04784
1.04738
1.04688
1.0463
1.04562
1.0449
1.04405
1.04312
1.0422
1.04122
1.04016
1.03896
1.03761
1.03624
1.03475
1.03315
1.03155
1.02984
1.02793
1.02574
1.02348
1.02111
1.01863
1.01601
1.0132
1.01032
1.00729
1.00411
1.00069
0.997193
0.993626
0.989373
0.98355
0.978452
0.975973
0.972796
0.967685
0.963052
0.957731
0.952461
0.947091
0.941655
0.935436
0.929726
0.923903
0.918601
0.912601
0.908035
0.903322
0.900379
0.896181
0.895414
0.893482
0.896619
0.897665
0.901093
0.905883
0.908556
0.914017
0.918551
0.924298
0.929137
0.933948
0.938499
0.943702
0.948573
0.953315
0.957794
0.961935
0.965998
0.970301
0.974763
0.978928
0.983015
0.986983
0.990954
0.99503
0.999374
1.00379
1.00828
1.01284
1.01753
1.02236
1.02734
1.03249
1.03781
1.04336
1.04908
1.05484
1.06065
1.06664
1.07293
1.07958
1.08662
1.09405
1.10184
1.10997
1.11857
1.12777
1.13755
1.14793
1.15882
1.17042
1.18258
1.19535
1.20858
1.22076
1.23187
1.24073
1.24674
1.24652
1.23708
1.21996
1.18913
1.14921
1.09828
1.04624
0.995419
0.950863
0.909305
0.869279
0.831806
0.800947
0.771761
0.749609
0.734253
0.722516
0.713996
0.707277
0.703059
0.701409
0.700877
0.700591
0.700245
0.700488
0.701638
0.702992
0.704284
0.705605
0.706303
0.706482
0.706386
0.705804
0.705209
0.705089
0.705366
0.70488
0.703926
0.70228
0.698471
0.694587
0.692626
0.691542
0.690887
0.690735
0.690483
0.690175
0.689941
0.690119
0.689409
0.685264
0.681359
0.677149
0.67367
0.671645
0.670383
0.668811
0.667548
0.665424
0.663768
0.661177
0.659372
0.656295
0.654626
0.652219
0.651747
0.647298
0.64889
0.64955
0.643415
0.642706
0.640773
0.64458
0.674893
0.739613
0.791747
0.809095
0.8145
0.817574
0.819966
0.822779
0.825807
0.829404
0.833204
0.837426
0.841714
0.845891
0.850543
0.856695
0.860957
0.863606
0.867461
0.872775
0.877523
0.880715
0.883925
0.888021
0.892194
0.895921
0.899529
0.903061
0.906538
0.909894
0.913152
0.916316
0.919249
0.922014
0.924644
0.927147
0.929512
0.931728
0.933807
0.935747
0.937543
0.939208
0.940751
0.942164
0.943459
0.944635
0.945699
0.946658
0.947518
0.948288
0.948989
0.949628
0.950208
0.950734
0.951221
0.951681
0.952121
0.952544
0.952951
0.953344
0.953723
0.954085
0.95443
0.954759
0.955073
0.955375
0.955663
0.955939
0.956212
0.956493
0.956777
0.957058
0.957376
0.957768
0.958259
0.958871
0.959609
0.960461
0.961418
0.962502
0.96366
0.964965
0.966372
0.967907
0.969788
0.971917
0.97429
0.976644
0.98013
0.983732
0.988541
0.9952
1.00457
1.01219
1.01599
1.01734
1.01736
1.01586
1.01266
1.00872
1.00497
1.00171
0.999026
0.996866
0.995166
0.993819
0.992754
0.991862
0.991101
0.990468
0.990022
0.989815
0.989984
0.990114
0.990118
0.98999
0.989823
0.990033
0.990481
0.991119
0.991886
0.992787
0.993867
0.995235
0.996965
0.999165
1.0019
1.00523
1.00911
1.01344
1.01787
1.02171
1.02415
1.02512
1.02497
1.02395
1.02233
1.02042
1.01862
1.01733
1.01681
1.01707
1.01788
1.019
1.02029
1.02167
1.02303
1.02443
1.02572
1.027
1.02817
1.02932
1.0304
1.03147
1.03249
1.0335
1.0345
1.03546
1.03644
1.03737
1.03833
1.03922
1.04011
1.04099
1.04182
1.04264
1.04342
1.04419
1.04488
1.04546
1.04608
1.0467
1.04731
1.04788
1.04831
1.04875
1.04914
1.04936
1.04952
1.04961
1.04962
1.04956
1.04944
1.04925
1.049
1.04866
1.04824
1.04777
1.04721
1.04658
1.0459
1.04509
1.04421
1.04333
1.04237
1.04134
1.04018
1.03888
1.03754
1.03608
1.03452
1.03294
1.03125
1.02937
1.02723
1.02501
1.02266
1.02018
1.01756
1.01476
1.0119
1.0089
1.00575
1.00239
0.998958
0.995446
0.991256
0.98555
0.98044
0.977889
0.974651
0.969602
0.964979
0.959581
0.954235
0.94877
0.94325
0.936988
0.931249
0.925417
0.920136
0.914256
0.909689
0.904995
0.902012
0.897911
0.89706
0.895248
0.89816
0.899281
0.902622
0.907258
0.91003
0.915304
0.919828
0.925429
0.93024
0.934995
0.939546
0.944676
0.949528
0.954219
0.958678
0.962809
0.966875
0.971145
0.975568
0.979726
0.98381
0.987784
0.991773
0.995861
1.00019
1.00461
1.00911
1.01367
1.01836
1.0232
1.02819
1.03335
1.03868
1.04423
1.04995
1.05573
1.06158
1.06759
1.07389
1.08054
1.08757
1.09497
1.10275
1.1109
1.11951
1.12866
1.13837
1.1486
1.15932
1.17067
1.18246
1.19476
1.20712
1.21852
1.22882
1.23688
1.242
1.24116
1.23204
1.21573
1.18763
1.15058
1.10367
1.05464
1.00562
0.961615
0.920385
0.880776
0.843453
0.811713
0.782065
0.758707
0.741919
0.729101
0.719716
0.712392
0.707509
0.705227
0.704327
0.703847
0.703371
0.703414
0.704347
0.705595
0.706819
0.708063
0.708745
0.708887
0.708738
0.70813
0.707469
0.707264
0.707511
0.707115
0.706226
0.704675
0.701065
0.69717
0.695045
0.6939
0.693228
0.693064
0.692848
0.692574
0.692368
0.692563
0.691961
0.68805
0.684135
0.679944
0.676412
0.674307
0.673027
0.671488
0.67023
0.668166
0.666507
0.663979
0.662158
0.659158
0.657436
0.655075
0.654553
0.650303
0.651591
0.652374
0.64657
0.645559
0.643671
0.647135
0.677032
0.742878
0.796544
0.813782
0.819073
0.822269
0.824741
0.827595
0.830592
0.834154
0.837917
0.842133
0.84645
0.850663
0.855312
0.861346
0.865557
0.868182
0.87198
0.877087
0.881659
0.884764
0.887847
0.891752
0.895735
0.899307
0.902762
0.906135
0.90945
0.91265
0.915755
0.918768
0.921559
0.924192
0.926694
0.929071
0.931313
0.933409
0.935369
0.937195
0.938882
0.940441
0.941882
0.943201
0.944407
0.945501
0.946488
0.947375
0.94817
0.948883
0.949531
0.950124
0.950664
0.951158
0.951618
0.952056
0.952474
0.95288
0.953271
0.95365
0.954015
0.954366
0.954701
0.95502
0.955326
0.955622
0.955905
0.956181
0.956456
0.956745
0.957049
0.95736
0.957715
0.95815
0.958687
0.95934
0.960108
0.960989
0.961979
0.963081
0.964316
0.965588
0.966953
0.968419
0.970092
0.972016
0.974208
0.976855
0.979352
0.983091
0.987044
0.992492
1.00084
1.00971
1.01468
1.0166
1.01689
1.01562
1.01257
1.00868
1.00495
1.0017
0.999017
0.996859
0.995161
0.993816
0.992751
0.991861
0.991101
0.990467
0.990022
0.989814
0.989984
0.990113
0.990118
0.98999
0.989823
0.990034
0.990482
0.99112
0.991887
0.992789
0.993871
0.99524
0.996972
0.999174
1.00191
1.00525
1.00914
1.01347
1.01793
1.02186
1.02446
1.02555
1.02548
1.02452
1.02297
1.02121
1.01959
1.0185
1.01818
1.01856
1.01938
1.02044
1.02163
1.02286
1.02412
1.0254
1.02662
1.02783
1.02895
1.03007
1.03112
1.03216
1.03316
1.03416
1.03513
1.03608
1.03704
1.03796
1.0389
1.03978
1.04067
1.04154
1.04237
1.04319
1.04396
1.04473
1.04542
1.04602
1.04664
1.04726
1.04786
1.04843
1.04887
1.04931
1.0497
1.04995
1.05013
1.05024
1.05027
1.05023
1.05013
1.04997
1.04974
1.04943
1.04905
1.04861
1.04809
1.04749
1.04684
1.04607
1.04523
1.04436
1.04342
1.04241
1.04128
1.04
1.03868
1.03723
1.03569
1.03412
1.03245
1.0306
1.0285
1.0263
1.02396
1.02149
1.01887
1.01609
1.01325
1.01026
1.00715
1.00382
1.00044
0.996966
0.992829
0.987225
0.9821
0.979448
0.976163
0.97118
0.966544
0.961079