/*--------------------------------*- C++ -*----------------------------------*\
| =========                 |                                                 |
| \\      /  F ield         | OpenFOAM: The Open Source CFD Toolbox           |
|  \\    /   O peration     | Version:  v2006                                 |
|   \\  /    A nd           | Website:  www.openfoam.com                      |
|    \\/     M anipulation  |                                                 |
\*---------------------------------------------------------------------------*/
FoamFile
{
    version     2.0;
    format      ascii;
    class       volScalarField;
    location    "185";
    object      rhoPrime2Mean;
}
// * * * * * * * * * * * * * * * * * * * * * * * * * * * * * * * * * * * * * //

dimensions      [2 -6 0 0 0 0 0];


internalField   nonuniform List<scalar> 
93840
(
4.02e-06
4.14233e-06
4.29739e-06
4.17922e-06
3.89827e-06
3.57758e-06
3.28442e-06
3.04132e-06
2.83811e-06
2.6654e-06
2.51146e-06
2.37696e-06
2.22607e-06
2.08741e-06
1.93511e-06
1.78307e-06
1.65405e-06
1.61158e-06
1.59008e-06
1.77073e-06
2.1004e-06
3.71248e-06
4.99619e-06
6.40275e-06
8.14854e-06
1.04199e-05
1.26136e-05
1.47309e-05
1.57114e-05
1.57874e-05
1.51564e-05
1.27316e-05
1.21405e-05
1.10776e-05
1.0627e-05
1.00624e-05
9.75877e-06
9.35015e-06
8.97208e-06
8.62455e-06
8.31408e-06
8.06651e-06
7.80669e-06
7.58383e-06
7.35234e-06
7.13553e-06
6.921e-06
6.7331e-06
6.55691e-06
6.34592e-06
6.19216e-06
6.07728e-06
5.88117e-06
5.68653e-06
5.60016e-06
5.50629e-06
5.40813e-06
5.29111e-06
5.15291e-06
5.02481e-06
4.9507e-06
4.85319e-06
4.74013e-06
4.71012e-06
4.64026e-06
4.57655e-06
4.5144e-06
4.43492e-06
4.43535e-06
4.34794e-06
4.31876e-06
4.27283e-06
4.24828e-06
4.2212e-06
4.19222e-06
4.17186e-06
4.15281e-06
4.13664e-06
4.12119e-06
4.10119e-06
4.08196e-06
4.06608e-06
4.0557e-06
4.05373e-06
4.05253e-06
4.05444e-06
4.05922e-06
4.06655e-06
4.08233e-06
4.10481e-06
4.12761e-06
4.14164e-06
4.15937e-06
4.1864e-06
4.23089e-06
4.2904e-06
4.353e-06
4.42088e-06
4.49015e-06
4.56551e-06
4.6411e-06
4.73357e-06
4.81244e-06
4.91967e-06
4.97201e-06
4.97395e-06
5.01825e-06
5.15903e-06
5.28984e-06
5.41527e-06
5.564e-06
5.7371e-06
5.95515e-06
6.29382e-06
6.74527e-06
7.61487e-06
9.11089e-06
9.88303e-06
9.4971e-06
8.33361e-06
8.72393e-06
9.04341e-06
9.03044e-06
9.12581e-06
8.63594e-06
8.47556e-06
7.98945e-06
7.43022e-06
7.20943e-06
6.57476e-06
6.26181e-06
6.0928e-06
6.09071e-06
6.34329e-06
6.6564e-06
7.06391e-06
6.52146e-06
6.35891e-06
6.15603e-06
5.29567e-06
4.45582e-06
4.29232e-06
4.18063e-06
4.03707e-06
3.91371e-06
3.80871e-06
3.72514e-06
3.63095e-06
3.52378e-06
3.38342e-06
3.32799e-06
3.25734e-06
3.15127e-06
3.0586e-06
2.97996e-06
2.89941e-06
2.81816e-06
2.73142e-06
2.63703e-06
2.55604e-06
2.4963e-06
2.43707e-06
2.37806e-06
2.31425e-06
2.24771e-06
2.17803e-06
2.10673e-06
2.04484e-06
1.98728e-06
1.91278e-06
1.82998e-06
1.7463e-06
1.66622e-06
1.56681e-06
1.46101e-06
1.33091e-06
1.18156e-06
9.70247e-07
7.3106e-07
5.0806e-07
3.95915e-07
8.7215e-08
6.79337e-09
8.6055e-08
3.16353e-07
5.06396e-07
1.21316e-06
1.10721e-06
8.01691e-07
5.88448e-07
5.70148e-07
1.04654e-06
1.15558e-06
1.37673e-06
1.37675e-06
1.69834e-06
2.37377e-06
3.58944e-06
5.0219e-06
6.23916e-06
6.74889e-06
6.73774e-06
6.22674e-06
5.09141e-06
3.78381e-06
2.58847e-06
1.85901e-06
1.50048e-06
1.13943e-06
8.34247e-07
6.37261e-07
5.27465e-07
5.25977e-07
6.56397e-07
8.1735e-07
9.00722e-07
1.06827e-06
1.35777e-06
1.78727e-06
2.21246e-06
2.64388e-06
3.0404e-06
3.34364e-06
3.59874e-06
3.76959e-06
3.91216e-06
4.09673e-06
4.36096e-06
4.75461e-06
5.14267e-06
5.42931e-06
5.8403e-06
6.17418e-06
6.55377e-06
7.1314e-06
7.62826e-06
8.32697e-06
8.98753e-06
9.50805e-06
1.0249e-05
1.097e-05
1.17963e-05
1.27515e-05
1.42912e-05
1.6176e-05
1.90901e-05
2.14061e-05
2.47477e-05
2.91e-05
3.14103e-05
3.22375e-05
3.43193e-05
5.08413e-05
0.000211959
0.00141411
0.00200843
0.000500357
6.55698e-05
7.61443e-06
1.91117e-06
1.52887e-06
1.4562e-06
1.32566e-06
1.201e-06
1.09446e-06
9.96627e-07
1.0273e-06
9.04448e-07
8.82e-07
1.09289e-06
9.45269e-07
8.2892e-07
9.5747e-07
1.27658e-06
1.23192e-06
1.04388e-06
1.03928e-06
1.18422e-06
1.2793e-06
1.21173e-06
1.189e-06
1.23639e-06
1.31782e-06
1.39578e-06
1.50986e-06
1.66463e-06
1.81741e-06
2.00096e-06
2.23532e-06
2.52521e-06
2.85992e-06
3.25981e-06
3.73793e-06
4.2754e-06
4.86742e-06
5.53985e-06
6.28961e-06
7.0793e-06
7.88909e-06
8.68487e-06
9.46508e-06
1.03394e-05
1.14362e-05
1.27282e-05
1.40469e-05
1.51543e-05
1.59393e-05
1.6379e-05
1.64906e-05
1.63103e-05
1.5927e-05
1.54834e-05
1.50913e-05
1.48e-05
1.46348e-05
1.45983e-05
1.46355e-05
1.4709e-05
1.47991e-05
1.48842e-05
1.49668e-05
1.50642e-05
1.5162e-05
1.52159e-05
1.5273e-05
1.52922e-05
1.54986e-05
1.55653e-05
1.58109e-05
1.603e-05
1.61309e-05
1.59248e-05
1.58489e-05
1.69773e-05
1.90107e-05
1.90693e-05
1.80998e-05
1.781e-05
1.85282e-05
1.81958e-05
1.61895e-05
1.31034e-05
1.06914e-05
8.07928e-06
6.26065e-06
4.75728e-06
3.49085e-06
1.99991e-06
1.69512e-06
1.53238e-06
1.57819e-06
1.64269e-06
1.77896e-06
1.9335e-06
2.0869e-06
2.22596e-06
2.37707e-06
2.51161e-06
2.66559e-06
2.83833e-06
3.04157e-06
3.28478e-06
3.57802e-06
3.89835e-06
4.17954e-06
4.29764e-06
4.14253e-06
4.02019e-06
4.01993e-06
4.14209e-06
4.29709e-06
4.17892e-06
3.89767e-06
3.57743e-06
3.28415e-06
3.04101e-06
2.83784e-06
2.66516e-06
2.51129e-06
2.37684e-06
2.22616e-06
2.0879e-06
1.9365e-06
1.78551e-06
1.65876e-06
1.62355e-06
1.60976e-06
1.77053e-06
2.09857e-06
3.59607e-06
4.89194e-06
6.34913e-06
8.07543e-06
1.01445e-05
1.18947e-05
1.35042e-05
1.42682e-05
1.38911e-05
1.31023e-05
1.17682e-05
1.12753e-05
1.06097e-05
1.03736e-05
1.01103e-05
9.65793e-06
9.27038e-06
8.89679e-06
8.57074e-06
8.27166e-06
8.01167e-06
7.7584e-06
7.52951e-06
7.30485e-06
7.08646e-06
6.86836e-06
6.68914e-06
6.50102e-06
6.31014e-06
6.15385e-06
6.01961e-06
5.84603e-06
5.67176e-06
5.56007e-06
5.46989e-06
5.35967e-06
5.24884e-06
5.11859e-06
4.99891e-06
4.91642e-06
4.8218e-06
4.74358e-06
4.65735e-06
4.59576e-06
4.52387e-06
4.48336e-06
4.4107e-06
4.36969e-06
4.32229e-06
4.27633e-06
4.23313e-06
4.20341e-06
4.17467e-06
4.14572e-06
4.12267e-06
4.10158e-06
4.08461e-06
4.06743e-06
4.04761e-06
4.02907e-06
4.01339e-06
4.00368e-06
4.00142e-06
3.99703e-06
3.99368e-06
3.99314e-06
3.9959e-06
4.0039e-06
4.01758e-06
4.0382e-06
4.05969e-06
4.0879e-06
4.12656e-06
4.17219e-06
4.22099e-06
4.26945e-06
4.32697e-06
4.3883e-06
4.45353e-06
4.51113e-06
4.57584e-06
4.657e-06
4.7784e-06
4.8881e-06
4.90591e-06
4.93728e-06
5.05285e-06
5.19243e-06
5.32778e-06
5.4855e-06
5.66143e-06
5.86799e-06
6.1985e-06
6.60314e-06
7.15339e-06
7.49749e-06
7.45631e-06
7.58997e-06
8.30223e-06
8.63323e-06
8.92985e-06
8.90372e-06
9.05978e-06
8.51698e-06
8.58836e-06
7.99887e-06
7.63626e-06
7.39471e-06
6.78197e-06
6.66768e-06
6.09332e-06
5.9544e-06
5.82377e-06
5.68051e-06
5.02473e-06
4.72438e-06
4.41897e-06
4.4011e-06
4.44249e-06
4.33243e-06
4.24951e-06
4.08229e-06
3.96304e-06
3.84033e-06
3.73906e-06
3.65504e-06
3.56659e-06
3.46044e-06
3.3431e-06
3.24748e-06
3.1774e-06
3.08459e-06
2.99949e-06
2.91677e-06
2.83447e-06
2.75108e-06
2.66719e-06
2.57947e-06
2.49919e-06
2.43772e-06
2.37982e-06
2.31991e-06
2.257e-06
2.19208e-06
2.12461e-06
2.05353e-06
1.98586e-06
1.91916e-06
1.84499e-06
1.76855e-06
1.68244e-06
1.59645e-06
1.50303e-06
1.40148e-06
1.26329e-06
1.08023e-06
9.00118e-07
7.06556e-07
5.08193e-07
3.36254e-07
7.29931e-08
1.36723e-08
2.23725e-08
1.60027e-07
3.39135e-07
4.19974e-07
5.62675e-07
6.66949e-07
4.21683e-07
5.95102e-07
1.04057e-06
9.44634e-07
1.15343e-06
1.41118e-06
2.0687e-06
3.25129e-06
5.53304e-06
7.46685e-06
1.01301e-05
1.08175e-05
1.11716e-05
1.0447e-05
8.61733e-06
6.27252e-06
4.2603e-06
3.0589e-06
2.35919e-06
1.77985e-06
1.32372e-06
1.03056e-06
8.5054e-07
8.24176e-07
9.99345e-07
1.27079e-06
1.49016e-06
1.80839e-06
2.18953e-06
2.58807e-06
2.93513e-06
3.23407e-06
3.46303e-06
3.64856e-06
3.83651e-06
3.95785e-06
4.08275e-06
4.25762e-06
4.51287e-06
4.87002e-06
5.25732e-06
5.52516e-06
5.87508e-06
6.13644e-06
6.43674e-06
6.87994e-06
7.23107e-06
7.81207e-06
8.3372e-06
8.80429e-06
9.45332e-06
1.01296e-05
1.09094e-05
1.18345e-05
1.32784e-05
1.51225e-05
1.77369e-05
2.01111e-05
2.33995e-05
2.73732e-05
2.95679e-05
3.04461e-05
3.17819e-05
4.63612e-05
0.000206236
0.00138346
0.00173768
0.000453558
6.23178e-05
7.52003e-06
1.56252e-06
9.91289e-07
9.12591e-07
8.56296e-07
7.81322e-07
6.79009e-07
5.72349e-07
5.12233e-07
4.34907e-07
4.60385e-07
5.25534e-07
4.53999e-07
4.29425e-07
4.69277e-07
5.83602e-07
5.99351e-07
5.50949e-07
5.61008e-07
6.49502e-07
7.14066e-07
7.32397e-07
7.80255e-07
8.59922e-07
9.57564e-07
1.06847e-06
1.22445e-06
1.41209e-06
1.5954e-06
1.80526e-06
2.06426e-06
2.37576e-06
2.73225e-06
3.14954e-06
3.63896e-06
4.18763e-06
4.79006e-06
5.46503e-06
6.21256e-06
6.99446e-06
7.79646e-06
8.5913e-06
9.3722e-06
1.02332e-05
1.12941e-05
1.2536e-05
1.38112e-05
1.49014e-05
1.56801e-05
1.61278e-05
1.62659e-05
1.61183e-05
1.57635e-05
1.53321e-05
1.49424e-05
1.46658e-05
1.45181e-05
1.44823e-05
1.45052e-05
1.45606e-05
1.4633e-05
1.47052e-05
1.47772e-05
1.48518e-05
1.49244e-05
1.49703e-05
1.50467e-05
1.49835e-05
1.51862e-05
1.52352e-05
1.53605e-05
1.55818e-05
1.59404e-05
1.61134e-05
1.61786e-05
1.76492e-05
1.82959e-05
1.80796e-05
1.89083e-05
1.98574e-05
2.05408e-05
1.9977e-05
1.86964e-05
1.57065e-05
1.14442e-05
8.40987e-06
6.16604e-06
4.59598e-06
3.40144e-06
1.91397e-06
1.59005e-06
1.45676e-06
1.54255e-06
1.63244e-06
1.77495e-06
1.93166e-06
2.08633e-06
2.22585e-06
2.37721e-06
2.51176e-06
2.66581e-06
2.83861e-06
3.04187e-06
3.28503e-06
3.57819e-06
3.89896e-06
4.17976e-06
4.2979e-06
4.14275e-06
4.02039e-06
4.01964e-06
4.14186e-06
4.2968e-06
4.17846e-06
3.89758e-06
3.57688e-06
3.2838e-06
3.04074e-06
2.83757e-06
2.66493e-06
2.51113e-06
2.37671e-06
2.22631e-06
2.08846e-06
1.93819e-06
1.78933e-06
1.666e-06
1.64595e-06
1.66595e-06
1.84422e-06
2.17822e-06
3.66823e-06
4.96513e-06
6.42202e-06
8.13633e-06
1.00012e-05
1.14879e-05
1.26326e-05
1.29881e-05
1.2696e-05
1.20572e-05
1.13661e-05
1.0879e-05
1.03901e-05
1.01196e-05
9.80868e-06
9.43828e-06
9.08368e-06
8.74759e-06
8.42993e-06
8.13999e-06
7.88701e-06
7.63502e-06
7.41249e-06
7.19775e-06
6.98333e-06
6.77114e-06
6.59281e-06
6.41631e-06
6.24005e-06
6.09035e-06
5.93771e-06
5.77923e-06
5.61976e-06
5.52176e-06
5.43138e-06
5.30791e-06
5.18786e-06
5.07011e-06
4.97297e-06
4.88679e-06
4.78652e-06
4.70748e-06
4.65048e-06
4.59235e-06
4.5106e-06
4.45684e-06
4.40463e-06
4.36339e-06
4.30611e-06
4.27179e-06
4.23456e-06
4.20551e-06
4.17788e-06
4.15429e-06
4.13336e-06
4.11433e-06
4.10145e-06
4.08591e-06
4.0669e-06
4.0497e-06
4.03489e-06
4.02423e-06
4.01758e-06
4.0122e-06
4.01289e-06
4.01703e-06
4.02509e-06
4.0422e-06
4.06711e-06
4.09059e-06
4.10438e-06
4.11654e-06
4.13971e-06
4.18439e-06
4.24775e-06
4.31644e-06
4.39232e-06
4.47261e-06
4.55977e-06
4.64032e-06
4.73614e-06
4.85281e-06
4.92413e-06
4.92945e-06
4.90454e-06
4.96855e-06
5.11403e-06
5.20045e-06
5.29665e-06
5.42529e-06
5.59156e-06
5.78462e-06
6.07476e-06
6.39433e-06
6.65767e-06
6.24701e-06
6.74833e-06
8.21701e-06
9.28489e-06
9.74161e-06
1.00543e-05
1.00363e-05
1.03456e-05
9.47558e-06
9.99399e-06
9.11684e-06
8.7894e-06
8.91454e-06
7.93518e-06
8.11489e-06
6.82642e-06
6.30459e-06
5.53747e-06
5.32479e-06
4.67514e-06
4.09984e-06
3.61882e-06
3.68819e-06
4.16078e-06
4.38549e-06
4.24499e-06
4.05319e-06
3.94721e-06
3.84768e-06
3.76898e-06
3.70417e-06
3.62526e-06
3.51604e-06
3.36312e-06
3.37699e-06
3.28813e-06
3.12913e-06
3.0548e-06
2.98583e-06
2.90518e-06
2.81828e-06
2.71447e-06
2.60433e-06
2.51058e-06
2.43206e-06
2.36365e-06
2.29668e-06
2.22889e-06
2.15853e-06
2.08553e-06
2.00989e-06
1.94245e-06
1.87871e-06
1.80797e-06
1.71951e-06
1.62731e-06
1.53683e-06
1.45308e-06
1.34746e-06
1.21419e-06
1.09325e-06
8.74182e-07
6.79734e-07
5.15856e-07
3.47145e-07
1.57099e-07
3.11227e-08
1.10734e-08
8.38248e-08
2.21252e-07
3.3037e-07
4.4856e-07
4.68454e-07
3.94716e-07
5.91718e-07
1.58222e-06
2.14372e-06
2.15123e-06
2.648e-06
3.78744e-06
6.19486e-06
1.02776e-05
1.39163e-05
1.803e-05
1.88915e-05
1.91207e-05
1.8419e-05
1.60723e-05
1.28391e-05
9.60251e-06
7.2561e-06
5.67029e-06
4.40398e-06
3.46202e-06
2.78733e-06
2.24123e-06
1.98641e-06
2.19579e-06
2.77576e-06
3.50834e-06
4.41181e-06
5.4003e-06
6.12956e-06
6.74989e-06
7.28949e-06
7.27461e-06
7.10593e-06
7.08483e-06
7.02631e-06
7.01022e-06
7.13625e-06
7.37252e-06
7.75492e-06
8.15635e-06
8.53873e-06
9.12699e-06
9.31322e-06
9.60313e-06
9.88612e-06
1.00677e-05
1.05396e-05
1.10028e-05
1.13733e-05
1.20038e-05
1.25676e-05
1.33337e-05
1.41281e-05
1.55343e-05
1.71948e-05
1.95995e-05
2.18618e-05
2.51752e-05
2.86928e-05
3.08921e-05
3.20379e-05
3.27199e-05
4.56398e-05
0.00020173
0.00138667
0.00161671
0.000393328
5.4916e-05
7.17233e-06
2.25759e-06
1.92661e-06
1.76307e-06
1.56621e-06
1.39838e-06
1.26108e-06
1.14631e-06
1.19647e-06
1.09175e-06
1.09394e-06
1.34863e-06
1.17024e-06
1.06396e-06
1.24744e-06
1.62097e-06
1.51489e-06
1.33295e-06
1.33139e-06
1.49258e-06
1.57568e-06
1.49838e-06
1.46969e-06
1.51447e-06
1.59412e-06
1.66385e-06
1.76367e-06
1.90259e-06
2.0426e-06
2.21518e-06
2.43626e-06
2.7131e-06
3.04103e-06
3.4367e-06
3.91177e-06
4.44915e-06
5.04243e-06
5.71144e-06
6.45327e-06
7.22745e-06
8.0214e-06
8.81284e-06
9.59607e-06
1.04439e-05
1.14684e-05
1.26636e-05
1.38959e-05
1.49579e-05
1.57196e-05
1.61638e-05
1.6314e-05
1.61935e-05
1.5875e-05
1.54805e-05
1.51257e-05
1.48825e-05
1.47589e-05
1.4734e-05
1.47584e-05
1.48099e-05
1.4881e-05
1.49568e-05
1.5035e-05
1.51154e-05
1.51931e-05
1.52545e-05
1.53622e-05
1.53591e-05
1.5464e-05
1.56053e-05
1.5784e-05
1.59868e-05
1.62654e-05
1.72643e-05
1.71577e-05
1.63361e-05
1.69601e-05
1.83727e-05
2.00669e-05
2.11513e-05
2.21393e-05
2.17154e-05
2.05932e-05
1.79131e-05
1.38471e-05
8.78539e-06
6.27322e-06
4.60972e-06
3.41393e-06
1.92218e-06
1.60547e-06
1.44479e-06
1.52757e-06
1.62621e-06
1.7722e-06
1.93016e-06
2.08579e-06
2.22575e-06
2.37733e-06
2.51194e-06
2.66607e-06
2.83886e-06
3.04218e-06
3.28541e-06
3.57865e-06
3.89914e-06
4.18014e-06
4.29819e-06
4.14298e-06
4.02054e-06
4.01952e-06
4.14166e-06
4.29654e-06
4.17818e-06
3.89701e-06
3.57674e-06
3.28353e-06
3.04044e-06
2.83733e-06
2.66472e-06
2.51099e-06
2.3766e-06
2.22637e-06
2.08894e-06
1.93968e-06
1.79258e-06
1.67286e-06
1.66689e-06
1.71452e-06
1.90401e-06
2.23917e-06
3.74391e-06
5.04045e-06
6.46119e-06
8.15585e-06
9.87581e-06
1.11302e-05
1.1996e-05
1.22441e-05
1.19953e-05
1.15235e-05
1.09762e-05
1.05589e-05
1.01074e-05
9.86439e-06
9.56282e-06
9.22698e-06
8.89389e-06
8.58004e-06
8.28436e-06
8.00933e-06
7.76576e-06
7.52147e-06
7.30182e-06
7.07877e-06
6.86398e-06
6.66029e-06
6.48474e-06
6.31348e-06
6.14432e-06
5.98799e-06
5.84428e-06
5.69806e-06
5.54997e-06
5.44444e-06
5.35287e-06
5.2284e-06
5.11238e-06
4.99986e-06
4.90531e-06
4.8154e-06
4.71984e-06
4.64437e-06
4.58012e-06
4.52281e-06
4.44096e-06
4.39105e-06
4.34206e-06
4.29223e-06
4.23939e-06
4.20184e-06
4.16334e-06
4.13259e-06
4.10391e-06
4.07843e-06
4.05466e-06
4.03333e-06
4.01773e-06
4.00137e-06
3.98333e-06
3.96734e-06
3.95293e-06
3.94251e-06
3.93559e-06
3.92547e-06
3.91938e-06
3.91808e-06
3.91962e-06
3.92917e-06
3.94658e-06
3.96761e-06
3.98421e-06
4.0047e-06
4.03281e-06
4.06809e-06
4.10948e-06
4.15232e-06
4.20395e-06
4.2601e-06
4.32535e-06
4.38581e-06
4.45476e-06
4.54906e-06
4.70152e-06
4.78234e-06
4.78775e-06
4.84075e-06
4.9138e-06
5.03751e-06
5.14824e-06
5.28712e-06
5.44674e-06
5.59745e-06
5.82455e-06
6.06659e-06
6.14594e-06
6.01594e-06
7.66524e-06
9.35087e-06
1.06272e-05
1.11551e-05
1.14353e-05
1.13736e-05
1.17784e-05
1.06203e-05
1.15553e-05
1.03823e-05
1.02138e-05
1.04849e-05
9.22869e-06
9.63107e-06
7.66182e-06
6.86088e-06
5.64093e-06
5.44048e-06
4.93937e-06
4.57186e-06
3.9905e-06
3.96058e-06
4.23102e-06
4.32539e-06
4.13776e-06
3.93438e-06
3.86137e-06
3.77686e-06
3.71338e-06
3.6637e-06
3.60734e-06
3.50993e-06
3.38188e-06
3.39724e-06
3.30011e-06
3.14161e-06
3.08752e-06
3.03301e-06
2.95614e-06
2.86047e-06
2.73514e-06
2.60192e-06
2.49087e-06
2.39592e-06
2.33475e-06
2.27397e-06
2.20003e-06
2.12032e-06
2.04139e-06
1.96558e-06
1.89774e-06
1.83175e-06
1.76193e-06
1.67374e-06
1.58235e-06
1.49412e-06
1.40728e-06
1.29121e-06
1.15992e-06
1.01293e-06
8.38672e-07
6.68384e-07
5.03549e-07
3.4486e-07
1.76938e-07
4.50743e-08
1.24168e-08
3.66215e-08
1.2978e-07
2.3044e-07
3.40792e-07
3.88868e-07
3.69313e-07
6.48713e-07
1.79254e-06
2.94116e-06
2.87166e-06
3.74036e-06
5.02322e-06
8.01948e-06
1.30182e-05
1.70624e-05
2.10821e-05
2.17318e-05
2.16058e-05
2.09308e-05
1.89841e-05
1.63071e-05
1.31527e-05
1.04096e-05
8.30033e-06
6.58505e-06
5.24035e-06
4.26012e-06
3.45574e-06
3.02508e-06
3.26865e-06
4.13911e-06
5.35901e-06
6.81511e-06
8.39063e-06
9.55177e-06
1.05021e-05
1.12704e-05
1.11014e-05
1.07272e-05
1.0592e-05
1.04431e-05
1.03745e-05
1.0515e-05
1.07936e-05
1.12497e-05
1.17901e-05
1.23818e-05
1.3232e-05
1.33817e-05
1.36221e-05
1.36987e-05
1.37111e-05
1.41166e-05
1.45261e-05
1.48587e-05
1.54376e-05
1.59301e-05
1.66518e-05
1.73578e-05
1.8705e-05
2.02005e-05
2.24706e-05
2.46425e-05
2.79704e-05
3.11224e-05
3.34422e-05
3.47385e-05
3.47432e-05
4.64974e-05
0.000198387
0.00142947
0.00168392
0.000332317
4.22177e-05
5.37247e-06
1.45197e-06
1.05403e-06
9.25608e-07
8.26354e-07
7.52772e-07
6.9845e-07
6.66426e-07
6.56576e-07
6.10736e-07
6.53662e-07
7.40899e-07
6.74162e-07
6.24157e-07
7.11219e-07
8.22135e-07
7.71384e-07
7.07641e-07
7.16975e-07
8.09165e-07
8.69174e-07
8.82076e-07
9.31263e-07
1.0101e-06
1.10736e-06
1.21727e-06
1.3687e-06
1.56117e-06
1.75896e-06
1.98125e-06
2.25089e-06
2.57242e-06
2.9408e-06
3.3685e-06
3.86657e-06
4.42593e-06
5.0395e-06
5.71821e-06
6.46032e-06
7.23044e-06
8.02311e-06
8.82288e-06
9.62062e-06
1.04757e-05
1.14834e-05
1.26292e-05
1.37956e-05
1.48007e-05
1.55247e-05
1.59497e-05
1.61046e-05
1.60144e-05
1.57475e-05
1.54108e-05
1.51048e-05
1.48952e-05
1.47868e-05
1.47627e-05
1.47819e-05
1.48299e-05
1.48986e-05
1.49762e-05
1.50585e-05
1.51453e-05
1.52272e-05
1.52929e-05
1.54156e-05
1.55029e-05
1.54956e-05
1.56043e-05
1.58175e-05
1.60872e-05
1.62876e-05
1.66289e-05
1.77467e-05
1.81004e-05
2.01204e-05
2.09682e-05
2.07127e-05
2.1924e-05
2.2068e-05
2.21773e-05
2.17698e-05
1.94309e-05
1.54281e-05
1.06172e-05
6.28514e-06
4.20043e-06
2.97927e-06
1.7842e-06
1.54159e-06
1.40464e-06
1.49937e-06
1.61335e-06
1.76808e-06
1.92839e-06
2.08527e-06
2.22564e-06
2.37747e-06
2.51209e-06
2.66626e-06
2.83913e-06
3.04242e-06
3.2857e-06
3.57896e-06
3.8994e-06
4.1805e-06
4.29848e-06
4.14319e-06
4.02071e-06
4.01928e-06
4.14144e-06
4.29627e-06
4.178e-06
3.89686e-06
3.5762e-06
3.2832e-06
3.04018e-06
2.83707e-06
2.6645e-06
2.51084e-06
2.37648e-06
2.22652e-06
2.08942e-06
1.94111e-06
1.79562e-06
1.67884e-06
1.68493e-06
1.75807e-06
1.95523e-06
2.28269e-06
3.76291e-06
5.07809e-06
6.48838e-06
8.15667e-06
9.74796e-06
1.08048e-05
1.14357e-05
1.15846e-05
1.14101e-05
1.10495e-05
1.05795e-05
1.01815e-05
9.79254e-06
9.56286e-06
9.26525e-06
8.96856e-06
8.65926e-06
8.37724e-06
8.10414e-06
7.84483e-06
7.60703e-06
7.37094e-06
7.1575e-06
6.9474e-06
6.74902e-06
6.55275e-06
6.38248e-06
6.2139e-06
6.04701e-06
5.89879e-06
5.75801e-06
5.613e-06
5.46878e-06
5.36623e-06
5.27788e-06
5.15379e-06
5.04197e-06
4.92972e-06
4.83936e-06
4.75284e-06
4.65813e-06
4.58467e-06
4.52316e-06
4.46736e-06
4.38704e-06
4.33499e-06
4.2902e-06
4.24169e-06
4.19246e-06
4.15979e-06
4.12584e-06
4.09671e-06
4.06883e-06
4.0455e-06
4.02094e-06
4.00032e-06
3.98581e-06
3.96904e-06
3.95403e-06
3.94257e-06
3.93148e-06
3.91909e-06
3.90299e-06
3.88438e-06
3.87066e-06
3.86441e-06
3.86673e-06
3.87929e-06
3.89567e-06
3.90743e-06
3.91651e-06
3.93066e-06
3.95709e-06
3.99792e-06
4.05242e-06
4.11531e-06
4.19229e-06
4.27448e-06
4.36593e-06
4.4426e-06
4.54558e-06
4.68981e-06
4.77507e-06
4.79527e-06
4.76583e-06
4.91572e-06
4.9989e-06
4.96692e-06
5.06069e-06
5.16344e-06
5.31911e-06
5.51311e-06
5.79489e-06
6.16544e-06
6.64411e-06
6.97365e-06
8.88002e-06
1.08235e-05
1.22675e-05
1.27828e-05
1.30818e-05
1.29234e-05
1.34015e-05
1.19171e-05
1.31219e-05
1.17096e-05
1.15266e-05
1.20355e-05
1.04681e-05
1.09726e-05
8.60584e-06
7.48471e-06
5.80011e-06
5.58435e-06
5.22498e-06
5.05577e-06
4.53124e-06
4.44975e-06
4.51391e-06
4.46406e-06
4.20968e-06
4.00396e-06
3.99093e-06
3.91468e-06
3.86291e-06
3.81644e-06
3.7564e-06
3.63776e-06
3.50799e-06
3.53168e-06
3.40717e-06
3.22925e-06
3.17427e-06
3.11712e-06
3.02461e-06
2.90942e-06
2.75754e-06
2.60965e-06
2.49779e-06
2.3917e-06
2.31061e-06
2.23452e-06
2.1555e-06
2.07871e-06
2.00337e-06
1.92913e-06
1.86061e-06
1.79416e-06
1.71836e-06
1.63019e-06
1.54156e-06
1.45772e-06
1.36302e-06
1.24496e-06
1.11868e-06
9.80752e-07
8.01432e-07
6.49395e-07
4.91331e-07
3.36345e-07
1.86431e-07
6.53779e-08
1.74521e-08
2.18752e-08
8.289e-08
1.74186e-07
2.62257e-07
3.06915e-07
3.35814e-07
5.32135e-07
1.40274e-06
3.2479e-06
3.73984e-06
4.69778e-06
5.69088e-06
8.28966e-06
1.30945e-05
1.76026e-05
2.14428e-05
2.2018e-05
2.16949e-05
2.08484e-05
1.88382e-05
1.6064e-05
1.30816e-05
1.06992e-05
9.00654e-06
7.47331e-06
6.1295e-06
5.10163e-06
4.22778e-06
3.73979e-06
4.02347e-06
5.09856e-06
6.65666e-06
8.51713e-06
1.05519e-05
1.20973e-05
1.33901e-05
1.44654e-05
1.42303e-05
1.36553e-05
1.34282e-05
1.32544e-05
1.31965e-05
1.33967e-05
1.37591e-05
1.43345e-05
1.50161e-05
1.58611e-05
1.70405e-05
1.7211e-05
1.74385e-05
1.73716e-05
1.72593e-05
1.76315e-05
1.80564e-05
1.83927e-05
1.90034e-05
1.94681e-05
2.02039e-05
2.08459e-05
2.21785e-05
2.35448e-05
2.57032e-05
2.77986e-05
3.11344e-05
3.39367e-05
3.6351e-05
3.7912e-05
3.73985e-05
4.81248e-05
0.000194909
0.0014668
0.00181567
0.00031208
3.18644e-05
3.83255e-06
1.81328e-06
1.72422e-06
1.51494e-06
1.2753e-06
1.07047e-06
9.21768e-07
8.0757e-07
7.83521e-07
7.51318e-07
8.58867e-07
1.12303e-06
1.06045e-06
1.01705e-06
1.14998e-06
1.42585e-06
1.43348e-06
1.32881e-06
1.34674e-06
1.4874e-06
1.57789e-06
1.58284e-06
1.62505e-06
1.70197e-06
1.79397e-06
1.88637e-06
2.01604e-06
2.17562e-06
2.32957e-06
2.51485e-06
2.74617e-06
3.02926e-06
3.36181e-06
3.7577e-06
4.22524e-06
4.74952e-06
5.32478e-06
5.96887e-06
6.68269e-06
7.4307e-06
8.2023e-06
8.98567e-06
9.77331e-06
1.06124e-05
1.15865e-05
1.26816e-05
1.37877e-05
1.47449e-05
1.54454e-05
1.58588e-05
1.60108e-05
1.5931e-05
1.56865e-05
1.53778e-05
1.50939e-05
1.48949e-05
1.4789e-05
1.47641e-05
1.47787e-05
1.48238e-05
1.48872e-05
1.49585e-05
1.5034e-05
1.51091e-05
1.51846e-05
1.52553e-05
1.53837e-05
1.54686e-05
1.55017e-05
1.55506e-05
1.57049e-05
1.59133e-05
1.61508e-05
1.6293e-05
1.73859e-05
1.78598e-05
1.81112e-05
1.81101e-05
2.00559e-05
2.01967e-05
2.21454e-05
2.26882e-05
2.16534e-05
2.02825e-05
1.71014e-05
1.20792e-05
7.4095e-06
4.36882e-06
3.11309e-06
1.72375e-06
1.43685e-06
1.34587e-06
1.46566e-06
1.60067e-06
1.76396e-06
1.92663e-06
2.08468e-06
2.22552e-06
2.37759e-06
2.51225e-06
2.6665e-06
2.83936e-06
3.04274e-06
3.28596e-06
3.57932e-06
3.89984e-06
4.18083e-06
4.29873e-06
4.14341e-06
4.02088e-06
4.01918e-06
4.14121e-06
4.296e-06
4.17751e-06
3.8964e-06
3.576e-06
3.28291e-06
3.03989e-06
2.83682e-06
2.66428e-06
2.51067e-06
2.37637e-06
2.22658e-06
2.0899e-06
1.94243e-06
1.79849e-06
1.68358e-06
1.69742e-06
1.7893e-06
1.99039e-06
2.29256e-06
3.7022e-06
5.03728e-06
6.45575e-06
8.08405e-06
9.55884e-06
1.04529e-05
1.09026e-05
1.0991e-05
1.08623e-05
1.05733e-05
1.01817e-05
9.81956e-06
9.47844e-06
9.25124e-06
8.97437e-06
8.70314e-06
8.42284e-06
8.16065e-06
7.90537e-06
7.66193e-06
7.43596e-06
7.21282e-06
7.01017e-06
6.8097e-06
6.62251e-06
6.43723e-06
6.2689e-06
6.10614e-06
5.94463e-06
5.79439e-06
5.66036e-06
5.52716e-06
5.38248e-06
5.27528e-06
5.1755e-06
5.05803e-06
4.96411e-06
4.85819e-06
4.76724e-06
4.68177e-06
4.59048e-06
4.51679e-06
4.44983e-06
4.39678e-06
4.3183e-06
4.26036e-06
4.21539e-06
4.16828e-06
4.12034e-06
4.0858e-06
4.05276e-06
4.02272e-06
3.99458e-06
3.97085e-06
3.94401e-06
3.92152e-06
3.90415e-06
3.88638e-06
3.874e-06
3.86808e-06
3.86374e-06
3.85402e-06
3.83079e-06
3.80402e-06
3.78386e-06
3.77257e-06
3.77466e-06
3.79327e-06
3.81792e-06
3.83033e-06
3.83416e-06
3.8447e-06
3.86405e-06
3.89529e-06
3.93988e-06
3.99115e-06
4.04868e-06
4.11727e-06
4.21303e-06
4.3106e-06
4.4146e-06
4.50017e-06
4.56412e-06
4.63994e-06
4.70468e-06
4.78975e-06
4.78978e-06
4.72164e-06
4.85757e-06
5.00285e-06
5.20797e-06
5.48267e-06
5.91911e-06
6.48208e-06
7.04556e-06
7.5667e-06
9.8652e-06
1.19182e-05
1.34771e-05
1.39137e-05
1.42084e-05
1.39743e-05
1.44229e-05
1.27901e-05
1.40672e-05
1.25593e-05
1.23518e-05
1.29138e-05
1.12031e-05
1.16272e-05
9.1464e-06
7.86957e-06
5.95639e-06
5.70916e-06
5.46044e-06
5.43085e-06
4.951e-06
4.77259e-06
4.6551e-06
4.50343e-06
4.24174e-06
4.05325e-06
4.03264e-06
3.95003e-06
3.89031e-06
3.83923e-06
3.77931e-06
3.66412e-06
3.55342e-06
3.55181e-06
3.42432e-06
3.26271e-06
3.21574e-06
3.16805e-06
3.07937e-06
2.95605e-06
2.78637e-06
2.61844e-06
2.47593e-06
2.35577e-06
2.27588e-06
2.20242e-06
2.12028e-06
2.04323e-06
1.97197e-06
1.89948e-06
1.82921e-06
1.75456e-06
1.67855e-06
1.59949e-06
1.51895e-06
1.4236e-06
1.32537e-06
1.20975e-06
1.08766e-06
9.36356e-07
7.829e-07
6.30798e-07
4.77274e-07
3.4367e-07
1.92817e-07
8.44617e-08
2.6528e-08
1.33963e-08
4.58784e-08
1.15797e-07
1.95809e-07
2.35427e-07
2.99698e-07
5.53881e-07
1.30793e-06
3.25696e-06
3.92601e-06
4.88467e-06
5.57336e-06
7.65772e-06
1.19035e-05
1.62756e-05
1.97135e-05
2.00721e-05
1.95545e-05
1.87024e-05
1.68941e-05
1.43745e-05
1.16754e-05
9.41344e-06
7.80198e-06
6.58939e-06
5.62022e-06
4.85724e-06
4.16266e-06
3.77318e-06
4.09971e-06
5.19793e-06
6.78539e-06
8.69021e-06
1.07875e-05
1.2444e-05
1.38566e-05
1.50538e-05
1.49486e-05
1.44377e-05
1.42613e-05
1.41662e-05
1.42013e-05
1.45129e-05
1.5001e-05
1.57041e-05
1.65268e-05
1.75522e-05
1.89195e-05
1.91453e-05
1.93383e-05
1.9181e-05
1.89916e-05
1.93359e-05
1.97584e-05
2.01039e-05
2.07163e-05
2.11766e-05
2.19105e-05
2.2541e-05
2.38605e-05
2.51694e-05
2.72739e-05
2.93449e-05
3.26685e-05
3.53463e-05
3.78226e-05
3.95068e-05
3.87513e-05
4.86448e-05
0.000189641
0.00149533
0.00196982
0.000315039
2.56804e-05
2.44912e-06
1.80878e-06
2.08783e-06
1.90372e-06
1.56137e-06
1.29492e-06
1.13575e-06
1.00234e-06
9.5285e-07
9.40571e-07
1.06585e-06
1.3409e-06
1.3023e-06
1.24223e-06
1.43355e-06
1.68651e-06
1.61039e-06
1.47764e-06
1.51651e-06
1.70105e-06
1.81363e-06
1.80799e-06
1.8595e-06
1.95482e-06
2.06483e-06
2.16798e-06
2.30265e-06
2.48479e-06
2.67396e-06
2.88836e-06
3.14533e-06
3.45149e-06
3.80443e-06
4.21235e-06
4.6849e-06
5.21773e-06
5.80493e-06
6.45154e-06
7.15658e-06
7.88784e-06
8.63998e-06
9.40534e-06
1.01831e-05
1.10133e-05
1.1959e-05
1.29909e-05
1.40099e-05
1.48844e-05
1.5525e-05
1.59009e-05
1.60395e-05
1.5975e-05
1.57744e-05
1.55228e-05
1.52914e-05
1.51291e-05
1.50436e-05
1.50239e-05
1.50325e-05
1.50665e-05
1.51198e-05
1.51864e-05
1.52611e-05
1.53371e-05
1.54119e-05
1.54958e-05
1.56568e-05
1.57612e-05
1.58402e-05
1.59325e-05
1.61163e-05
1.64122e-05
1.6819e-05
1.73656e-05
1.83097e-05
1.87934e-05
1.94449e-05
2.01294e-05
2.04292e-05
2.2151e-05
2.17187e-05
2.09515e-05
2.20532e-05
2.04585e-05
1.77331e-05
1.37005e-05
8.49985e-06
4.31087e-06
2.77041e-06
1.67746e-06
1.38749e-06
1.29915e-06
1.43454e-06
1.5867e-06
1.75982e-06
1.92484e-06
2.08408e-06
2.2254e-06
2.37772e-06
2.51241e-06
2.66671e-06
2.83963e-06
3.04298e-06
3.28637e-06
3.57956e-06
3.90016e-06
4.18116e-06
4.29887e-06
4.14364e-06
4.02108e-06
4.01892e-06
4.14098e-06
4.2957e-06
4.17742e-06
3.89598e-06
3.57568e-06
3.28256e-06
3.03961e-06
2.83655e-06
2.66405e-06
2.51052e-06
2.37623e-06
2.22673e-06
2.09035e-06
1.94378e-06
1.8012e-06
1.68718e-06
1.70568e-06
1.81398e-06
2.01389e-06
2.27958e-06
3.59933e-06
4.95202e-06
6.39251e-06
7.96587e-06
9.3277e-06
1.00932e-05
1.03944e-05
1.04378e-05
1.03531e-05
1.01184e-05
9.76627e-06
9.42044e-06
9.12372e-06
8.88902e-06
8.63052e-06
8.39011e-06
8.13358e-06
7.89861e-06
7.66183e-06
7.43787e-06
7.22462e-06
7.01709e-06
6.82433e-06
6.63474e-06
6.45561e-06
6.27714e-06
6.11444e-06
5.95507e-06
5.8038e-06
5.66378e-06
5.52964e-06
5.39754e-06
5.26175e-06
5.15277e-06
5.05564e-06
4.94316e-06
4.84665e-06
4.74217e-06
4.65396e-06
4.57101e-06
4.47902e-06
4.40768e-06
4.34165e-06
4.28506e-06
4.21017e-06
4.15374e-06
4.11235e-06
4.06721e-06
4.026e-06
3.99431e-06
3.96391e-06
3.93507e-06
3.90832e-06
3.88494e-06
3.85544e-06
3.82982e-06
3.80706e-06
3.78846e-06
3.78496e-06
3.79455e-06
3.8051e-06
3.79913e-06
3.76854e-06
3.73709e-06
3.71587e-06
3.70417e-06
3.71075e-06
3.73703e-06
3.76445e-06
3.76624e-06
3.75344e-06
3.75077e-06
3.7684e-06
3.82225e-06
3.90676e-06
4.00514e-06
4.11322e-06
4.24007e-06
4.38202e-06
4.49138e-06
4.58781e-06
4.59161e-06
4.51332e-06
4.70142e-06
4.74313e-06
4.92674e-06
4.90177e-06
4.6427e-06
4.81516e-06
4.9951e-06
5.26821e-06
5.67217e-06
6.23342e-06
6.8789e-06
7.52199e-06
8.23384e-06
1.05628e-05
1.26497e-05
1.4126e-05
1.44962e-05
1.47692e-05
1.4443e-05
1.48035e-05
1.31396e-05
1.43455e-05
1.28329e-05
1.25626e-05
1.30915e-05
1.13616e-05
1.16197e-05
9.22223e-06
7.91278e-06
6.0314e-06
5.72447e-06
5.56028e-06
5.58493e-06
5.16161e-06
4.94308e-06
4.73812e-06
4.53128e-06
4.26857e-06
4.09398e-06
4.07463e-06
3.991e-06
3.92987e-06
3.87081e-06
3.79934e-06
3.67831e-06
3.57546e-06
3.53507e-06
3.40492e-06
3.25967e-06
3.19853e-06
3.1342e-06
3.02873e-06
2.89574e-06
2.72568e-06
2.56385e-06
2.43225e-06
2.31886e-06
2.24031e-06
2.17287e-06
2.10181e-06
2.02417e-06
1.94607e-06
1.87077e-06
1.80107e-06
1.7278e-06
1.65239e-06
1.57539e-06
1.49111e-06
1.39374e-06
1.28949e-06
1.17839e-06
1.05278e-06
9.16608e-07
7.63259e-07
6.15914e-07
4.67877e-07
3.47065e-07
2.02139e-07
1.03387e-07
3.86332e-08
1.47378e-08
3.01296e-08
8.23539e-08
1.52242e-07
2.00507e-07
3.14118e-07
6.65287e-07
1.30686e-06
3.2916e-06
4.61297e-06
6.03754e-06
6.71137e-06
8.39411e-06
1.2002e-05
1.57652e-05
1.85243e-05
1.84743e-05
1.75556e-05
1.65075e-05
1.47902e-05
1.25063e-05
1.0019e-05
7.9059e-06
6.45966e-06
5.40959e-06
4.59857e-06
4.04386e-06
3.57253e-06
3.33942e-06
3.69324e-06
4.6947e-06
6.10301e-06
7.78689e-06
9.6984e-06
1.12402e-05
1.25613e-05
1.3761e-05
1.37229e-05
1.32683e-05
1.31929e-05
1.32425e-05
1.34111e-05
1.38288e-05
1.44061e-05
1.51729e-05
1.60412e-05
1.7117e-05
1.85303e-05
1.88059e-05
1.89952e-05
1.88368e-05
1.86416e-05
1.89946e-05
1.94416e-05
1.9838e-05
2.04842e-05
2.10108e-05
2.1785e-05
2.2493e-05
2.38332e-05