/*--------------------------------*- C++ -*----------------------------------*\
| =========                 |                                                 |
| \\      /  F ield         | OpenFOAM: The Open Source CFD Toolbox           |
|  \\    /   O peration     | Version:  v2006                                 |
|   \\  /    A nd           | Website:  www.openfoam.com                      |
|    \\/     M anipulation  |                                                 |
\*---------------------------------------------------------------------------*/
FoamFile
{
    version     2.0;
    format      ascii;
    class       volSymmTensorField;
    location    "185";
    object      rhoUPrime2Mean;
}
// * * * * * * * * * * * * * * * * * * * * * * * * * * * * * * * * * * * * * //

dimensions      [2 -4 -2 0 0 0 0];


internalField   nonuniform List<symmTensor> 
93840
(
(3.24935e-09 -8.98763e-08 0 4.24071e-06 0 0)
(5.37568e-08 4.01012e-07 0 3.19275e-06 0 0)
(1.7847e-07 6.20928e-07 0 2.20364e-06 0 0)
(2.96641e-07 6.4692e-07 0 1.43172e-06 0 0)
(3.56363e-07 5.53218e-07 0 8.7353e-07 0 0)
(3.69345e-07 4.44574e-07 0 5.50177e-07 0 0)
(3.51878e-07 3.53964e-07 0 3.66572e-07 0 0)
(3.40337e-07 2.96545e-07 0 2.68046e-07 0 0)
(3.25936e-07 2.59382e-07 0 2.17351e-07 0 0)
(3.20471e-07 2.38909e-07 0 1.91961e-07 0 0)
(3.14141e-07 2.28423e-07 0 1.82972e-07 0 0)
(3.10409e-07 2.2737e-07 0 1.89033e-07 0 0)
(3.07697e-07 2.28861e-07 0 2.04258e-07 0 0)
(3.05541e-07 2.42636e-07 0 2.56033e-07 0 0)
(3.3301e-07 2.60548e-07 0 3.40295e-07 0 0)
(3.86405e-07 2.72649e-07 0 5.1078e-07 0 0)
(4.96868e-07 2.97217e-07 0 8.27192e-07 0 0)
(7.15906e-07 4.21005e-07 0 1.38791e-06 0 0)
(1.24177e-06 8.3473e-07 0 2.16111e-06 0 0)
(2.55152e-06 1.85387e-06 0 3.3721e-06 0 0)
(4.82221e-06 3.50029e-06 0 4.4051e-06 0 0)
(8.00011e-06 5.10129e-06 0 6.89885e-06 0 0)
(1.24323e-05 7.18516e-06 0 7.67115e-06 0 0)
(1.71939e-05 8.95811e-06 0 6.9792e-06 0 0)
(2.13609e-05 8.9303e-06 0 5.58728e-06 0 0)
(2.32635e-05 8.05722e-06 0 4.78e-06 0 0)
(2.41534e-05 6.30704e-06 0 3.47283e-06 0 0)
(2.44313e-05 5.05054e-06 0 3.48761e-06 0 0)
(2.18068e-05 3.7522e-06 0 2.87733e-06 0 0)
(1.9838e-05 1.91802e-06 0 1.5577e-06 0 0)
(1.76897e-05 5.14504e-07 0 7.00127e-07 0 0)
(1.60285e-05 3.56442e-07 0 2.25665e-07 0 0)
(1.6926e-05 -4.32198e-08 0 4.47397e-08 0 0)
(1.47795e-05 -3.05565e-07 0 5.41744e-08 0 0)
(1.30077e-05 -2.55986e-07 0 4.4526e-08 0 0)
(1.16891e-05 -8.6326e-08 0 2.622e-08 0 0)
(1.0667e-05 -3.30458e-07 0 2.6807e-08 0 0)
(1.00104e-05 -3.09542e-07 0 3.31336e-08 0 0)
(9.2964e-06 -2.77699e-07 0 2.98766e-08 0 0)
(8.64818e-06 -2.48321e-07 0 2.4431e-08 0 0)
(8.14486e-06 -2.1652e-07 0 2.06705e-08 0 0)
(7.6416e-06 -1.87204e-07 0 1.77683e-08 0 0)
(7.18328e-06 -1.51563e-07 0 1.42605e-08 0 0)
(6.78138e-06 -1.41409e-07 0 1.2317e-08 0 0)
(6.41108e-06 -1.42588e-07 0 1.3338e-08 0 0)
(6.04649e-06 -1.28799e-07 0 1.21608e-08 0 0)
(5.67479e-06 -1.01622e-07 0 1.03668e-08 0 0)
(5.38925e-06 -8.76573e-08 0 9.63162e-09 0 0)
(5.08825e-06 -7.95122e-08 0 1.00994e-08 0 0)
(4.76101e-06 -7.31906e-08 0 1.0127e-08 0 0)
(4.54813e-06 -7.34874e-08 0 1.36766e-08 0 0)
(4.27757e-06 -4.77414e-08 0 1.28334e-08 0 0)
(4.04456e-06 -3.51951e-08 0 1.35614e-08 0 0)
(3.74584e-06 -2.24379e-08 0 1.34321e-08 0 0)
(3.58468e-06 -6.32528e-09 0 1.53986e-08 0 0)
(3.33946e-06 5.99667e-09 0 1.53295e-08 0 0)
(3.17036e-06 2.1407e-09 0 1.24977e-08 0 0)
(2.98215e-06 3.69103e-08 0 1.43373e-08 0 0)
(2.80494e-06 3.90511e-08 0 1.54363e-08 0 0)
(2.59534e-06 4.00466e-08 0 1.98288e-08 0 0)
(2.4511e-06 4.19903e-08 0 2.33967e-08 0 0)
(2.3029e-06 5.35314e-08 0 2.43266e-08 0 0)
(2.14521e-06 6.25102e-08 0 2.46567e-08 0 0)
(1.99002e-06 3.78386e-08 0 3.0877e-08 0 0)
(1.89238e-06 4.5438e-08 0 4.01577e-08 0 0)
(1.77149e-06 5.19167e-08 0 4.12516e-08 0 0)
(1.66286e-06 6.76873e-08 0 3.49134e-08 0 0)
(1.56727e-06 5.8209e-08 0 3.33976e-08 0 0)
(1.4054e-06 4.99374e-08 0 5.23757e-08 0 0)
(1.35772e-06 6.56476e-08 0 3.63715e-08 0 0)
(1.26773e-06 6.05984e-08 0 4.28249e-08 0 0)
(1.16982e-06 6.15014e-08 0 4.63157e-08 0 0)
(1.0986e-06 6.30865e-08 0 4.62283e-08 0 0)
(1.02753e-06 6.36951e-08 0 4.57443e-08 0 0)
(9.55313e-07 6.30465e-08 0 4.65531e-08 0 0)
(8.94271e-07 6.34896e-08 0 4.7492e-08 0 0)
(8.4015e-07 6.43277e-08 0 4.83475e-08 0 0)
(7.83713e-07 6.32657e-08 0 4.79763e-08 0 0)
(7.30224e-07 6.18381e-08 0 4.85839e-08 0 0)
(6.7517e-07 5.90923e-08 0 4.83162e-08 0 0)
(6.18152e-07 5.60335e-08 0 4.85091e-08 0 0)
(5.67925e-07 5.74545e-08 0 4.79507e-08 0 0)
(5.25532e-07 6.30073e-08 0 4.52844e-08 0 0)
(4.96046e-07 6.80487e-08 0 4.4616e-08 0 0)
(4.79723e-07 7.0264e-08 0 4.50922e-08 0 0)
(4.60935e-07 6.34258e-08 0 4.32179e-08 0 0)
(4.42914e-07 5.42395e-08 0 4.4125e-08 0 0)
(4.18968e-07 4.33056e-08 0 4.76368e-08 0 0)
(3.84008e-07 3.75165e-08 0 5.36626e-08 0 0)
(3.46558e-07 4.1541e-08 0 6.09699e-08 0 0)
(3.19704e-07 5.21792e-08 0 6.67936e-08 0 0)
(3.11055e-07 6.75263e-08 0 7.48533e-08 0 0)
(3.14427e-07 6.88474e-08 0 5.92635e-08 0 0)
(3.18975e-07 4.41921e-08 0 3.75924e-08 0 0)
(3.20547e-07 2.38011e-08 0 3.52814e-08 0 0)
(3.29254e-07 2.83733e-08 0 3.7591e-08 0 0)
(3.1704e-07 3.8978e-08 0 4.30068e-08 0 0)
(3.12588e-07 5.18397e-08 0 4.31053e-08 0 0)
(3.10638e-07 5.87689e-08 0 4.56189e-08 0 0)
(3.17006e-07 6.6188e-08 0 4.75592e-08 0 0)
(3.46982e-07 8.04557e-08 0 5.58397e-08 0 0)
(3.95733e-07 9.13387e-08 0 7.77303e-08 0 0)
(4.31106e-07 1.02755e-07 0 8.02029e-08 0 0)
(3.6083e-07 9.38887e-08 0 4.85261e-08 0 0)
(3.02122e-07 6.16113e-08 0 2.53122e-08 0 0)
(2.40543e-07 3.91937e-08 0 1.13131e-08 0 0)
(2.31499e-07 4.57463e-08 0 1.69975e-08 0 0)
(2.2585e-07 5.64159e-08 0 2.73966e-08 0 0)
(1.84498e-07 4.12836e-08 0 1.74382e-08 0 0)
(1.53759e-07 3.24461e-08 0 1.27242e-08 0 0)
(1.04108e-07 2.02804e-08 0 7.75447e-09 0 0)
(7.55341e-08 1.45191e-08 0 5.70958e-09 0 0)
(5.91414e-08 1.31685e-08 0 5.53053e-09 0 0)
(4.08567e-08 1.03078e-08 0 4.91317e-09 0 0)
(6.33072e-08 1.96897e-08 0 1.20174e-08 0 0)
(1.6247e-07 6.01175e-08 0 3.39414e-08 0 0)
(1.2563e-07 4.22899e-08 0 2.12045e-08 0 0)
(2.28169e-08 -1.4663e-08 0 5.32333e-08 0 0)
(1.33963e-07 -2.57941e-09 0 7.02554e-08 0 0)
(9.44007e-08 -1.48953e-07 0 2.8886e-07 0 0)
(1.51856e-07 -1.79222e-07 0 3.66801e-07 0 0)
(1.56985e-07 -1.7557e-07 0 2.77986e-07 0 0)
(1.92055e-07 -1.91478e-07 0 3.01368e-07 0 0)
(2.16089e-07 -2.1547e-07 0 3.15458e-07 0 0)
(2.00089e-07 -1.60852e-07 0 2.50737e-07 0 0)
(2.09518e-07 -2.30844e-07 0 4.53197e-07 0 0)
(2.27164e-07 -1.81066e-07 0 2.93015e-07 0 0)
(1.442e-07 -1.41271e-07 0 5.2362e-07 0 0)
(2.30283e-07 -2.0634e-07 0 3.94558e-07 0 0)
(1.89265e-07 -1.685e-07 0 3.51367e-07 0 0)
(1.83746e-07 -2.08914e-07 0 5.64289e-07 0 0)
(1.65037e-07 -1.36284e-07 0 2.21962e-07 0 0)
(9.13957e-08 -7.49138e-08 0 2.47235e-07 0 0)
(1.73272e-07 2.99439e-08 0 6.74615e-08 0 0)
(2.01789e-07 9.04216e-08 0 8.99785e-08 0 0)
(7.61738e-08 9.18638e-09 0 2.81222e-08 0 0)
(2.24846e-08 1.2558e-09 0 7.30857e-08 0 0)
(2.64345e-08 -1.2615e-08 0 2.76101e-08 0 0)
(8.25654e-08 1.76391e-08 0 8.93752e-09 0 0)
(1.65566e-07 7.94922e-09 0 2.83604e-09 0 0)
(2.61408e-07 -5.46509e-09 0 4.39684e-09 0 0)
(2.35794e-07 -2.4731e-09 0 1.03748e-08 0 0)
(2.21473e-07 -4.85702e-08 0 1.29643e-08 0 0)
(2.62214e-07 -2.50578e-08 0 4.29307e-09 0 0)
(2.70535e-07 -3.19164e-08 0 5.29357e-09 0 0)
(3.02494e-07 -3.87652e-08 0 6.52012e-09 0 0)
(3.19224e-07 -4.35405e-08 0 7.80424e-09 0 0)
(3.48416e-07 -4.39375e-08 0 8.21222e-09 0 0)
(3.81176e-07 -4.82455e-08 0 8.61212e-09 0 0)
(3.80975e-07 -5.16436e-08 0 1.05929e-08 0 0)
(4.5775e-07 -9.519e-08 0 2.2262e-08 0 0)
(4.96917e-07 -9.7287e-08 0 2.38739e-08 0 0)
(4.87361e-07 -8.99676e-08 0 2.24858e-08 0 0)
(5.2155e-07 -9.73133e-08 0 2.14495e-08 0 0)
(5.62884e-07 -1.07329e-07 0 2.42329e-08 0 0)
(6.02571e-07 -1.1869e-07 0 2.73111e-08 0 0)
(6.42653e-07 -1.31055e-07 0 3.06975e-08 0 0)
(6.81237e-07 -1.45521e-07 0 3.42119e-08 0 0)
(7.22775e-07 -1.62811e-07 0 3.82971e-08 0 0)
(7.70266e-07 -1.81283e-07 0 4.40792e-08 0 0)
(8.21021e-07 -2.0013e-07 0 5.04979e-08 0 0)
(8.70413e-07 -2.25627e-07 0 6.05044e-08 0 0)
(9.32815e-07 -2.5443e-07 0 7.15733e-08 0 0)
(9.97153e-07 -2.85192e-07 0 8.32309e-08 0 0)
(1.06446e-06 -3.20317e-07 0 9.73033e-08 0 0)
(1.14085e-06 -3.61061e-07 0 1.14477e-07 0 0)
(1.22353e-06 -4.05143e-07 0 1.34199e-07 0 0)
(1.30956e-06 -4.51322e-07 0 1.55646e-07 0 0)
(1.40144e-06 -5.07647e-07 0 1.84083e-07 0 0)
(1.51689e-06 -5.82179e-07 0 2.2359e-07 0 0)
(1.63846e-06 -6.75762e-07 0 2.78948e-07 0 0)
(1.77175e-06 -7.70442e-07 0 3.35057e-07 0 0)
(1.89229e-06 -8.73066e-07 0 4.02841e-07 0 0)
(2.05691e-06 -9.97469e-07 0 4.83717e-07 0 0)
(2.22831e-06 -1.16413e-06 0 6.08182e-07 0 0)
(2.28164e-06 -1.34893e-06 0 7.97503e-07 0 0)
(2.48226e-06 -1.69925e-06 0 1.16326e-06 0 0)
(3.02552e-06 -2.38629e-06 0 1.88222e-06 0 0)
(3.35596e-06 -3.08965e-06 0 2.84538e-06 0 0)
(4.47668e-06 -3.98108e-06 0 3.55855e-06 0 0)
(5.47825e-06 -4.86457e-06 0 4.34283e-06 0 0)
(4.58424e-07 -1.71604e-06 0 6.59739e-06 0 0)
(7.05807e-07 -2.03309e-06 0 5.85849e-06 0 0)
(1.74831e-07 -8.62044e-07 0 4.25412e-06 0 0)
(6.75129e-10 -1.52415e-08 0 2.99911e-06 0 0)
(4.56585e-08 2.84165e-07 0 1.77588e-06 0 0)
(2.84532e-08 1.28194e-07 0 6.97872e-07 0 0)
(1.61787e-07 1.24092e-07 0 1.06692e-07 0 0)
(1.3181e-07 1.10477e-07 0 1.07501e-07 0 0)
(8.36435e-08 2.85246e-08 0 8.13922e-08 0 0)
(1.1131e-07 -1.17689e-07 0 3.22062e-07 0 0)
(2.8509e-07 3.57215e-07 0 1.00706e-06 0 0)
(9.55954e-07 7.84136e-07 0 1.02804e-06 0 0)
(1.26318e-06 8.36348e-07 0 1.36911e-06 0 0)
(1.51651e-06 1.31374e-06 0 2.27384e-06 0 0)
(1.94372e-06 2.14794e-06 0 3.84182e-06 0 0)
(2.89139e-06 3.47113e-06 0 6.20604e-06 0 0)
(4.01666e-06 5.25332e-06 0 1.06293e-05 0 0)
(5.69459e-06 6.60592e-06 0 1.45113e-05 0 0)
(7.22099e-06 7.59793e-06 0 1.82361e-05 0 0)
(7.07141e-06 7.33549e-06 0 1.86273e-05 0 0)
(6.19439e-06 6.75314e-06 0 1.76829e-05 0 0)
(5.23339e-06 6.06648e-06 0 1.43514e-05 0 0)
(4.03494e-06 5.04071e-06 0 1.00936e-05 0 0)
(2.94302e-06 3.6644e-06 0 5.78947e-06 0 0)
(1.93757e-06 2.29575e-06 0 2.97472e-06 0 0)
(1.24769e-06 1.4194e-06 0 1.74047e-06 0 0)
(8.92784e-07 9.83918e-07 0 1.20264e-06 0 0)
(6.73598e-07 7.03172e-07 0 8.64066e-07 0 0)
(5.35079e-07 5.26583e-07 0 6.57404e-07 0 0)
(4.53772e-07 4.10146e-07 0 5.09834e-07 0 0)
(3.72015e-07 3.16533e-07 0 4.13773e-07 0 0)
(3.34588e-07 2.72852e-07 0 3.7791e-07 0 0)
(3.51854e-07 2.92358e-07 0 4.17291e-07 0 0)
(3.92168e-07 3.44783e-07 0 5.30097e-07 0 0)
(6.78069e-07 4.35932e-07 0 6.79251e-07 0 0)
(1.25869e-06 5.94562e-07 0 8.81529e-07 0 0)
(1.87699e-06 7.99911e-07 0 1.06294e-06 0 0)
(2.16504e-06 8.99751e-07 0 1.17441e-06 0 0)
(2.12065e-06 9.43897e-07 0 1.20919e-06 0 0)
(1.80581e-06 9.23889e-07 0 1.17511e-06 0 0)
(1.45277e-06 8.28116e-07 0 1.10682e-06 0 0)
(1.17583e-06 7.01336e-07 0 1.05091e-06 0 0)
(1.16266e-06 6.48327e-07 0 1.00418e-06 0 0)
(1.34959e-06 6.23908e-07 0 9.65193e-07 0 0)
(1.59455e-06 6.13074e-07 0 9.48695e-07 0 0)
(1.91474e-06 6.34409e-07 0 9.41424e-07 0 0)
(2.26133e-06 6.59368e-07 0 9.4638e-07 0 0)
(2.60847e-06 6.82445e-07 0 9.46192e-07 0 0)
(2.83475e-06 6.83031e-07 0 9.975e-07 0 0)
(3.13728e-06 7.04454e-07 0 1.00664e-06 0 0)
(3.40519e-06 7.41761e-07 0 1.03513e-06 0 0)
(3.58122e-06 7.31214e-07 0 1.05036e-06 0 0)
(3.95626e-06 7.50522e-07 0 1.04534e-06 0 0)
(4.50506e-06 7.77637e-07 0 1.03875e-06 0 0)
(5.13754e-06 8.075e-07 0 1.04654e-06 0 0)
(5.64648e-06 8.2764e-07 0 1.05877e-06 0 0)
(6.17359e-06 8.40921e-07 0 1.04651e-06 0 0)
(6.70341e-06 8.36575e-07 0 1.06082e-06 0 0)
(7.28386e-06 8.40788e-07 0 1.03074e-06 0 0)
(7.94797e-06 8.27008e-07 0 1.03811e-06 0 0)
(8.6008e-06 8.32766e-07 0 1.00958e-06 0 0)
(9.09049e-06 7.89795e-07 0 1.0024e-06 0 0)
(9.50952e-06 7.7529e-07 0 9.81919e-07 0 0)
(9.80471e-06 7.11648e-07 0 9.36082e-07 0 0)
(9.97119e-06 6.5894e-07 0 9.36471e-07 0 0)
(1.05125e-05 5.75576e-07 0 8.35254e-07 0 0)
(9.97582e-06 4.84961e-07 0 1.04655e-06 0 0)
(1.07863e-05 4.63801e-07 0 9.61965e-07 0 0)
(1.07963e-05 3.39459e-07 0 9.40721e-07 0 0)
(1.26472e-05 3.15705e-07 0 1.04321e-06 0 0)
(1.11309e-05 1.5146e-07 0 8.71788e-07 0 0)
(1.75071e-05 7.38433e-07 0 9.73243e-07 0 0)
(6.50637e-05 -4.92792e-06 0 2.34613e-06 0 0)
(0.000933309 -4.42149e-05 0 3.35956e-06 0 0)
(0.000863463 -1.18149e-05 0 9.69977e-07 0 0)
(0.000107658 -8.81516e-06 0 1.82312e-06 0 0)
(0.000433664 -3.14279e-05 0 2.42077e-06 0 0)
(0.000575969 -3.5558e-05 0 2.23963e-06 0 0)
(0.000561769 -3.5751e-05 0 2.38877e-06 0 0)
(0.000518728 -3.51429e-05 0 2.57629e-06 0 0)
(0.000457878 -3.25895e-05 0 2.52501e-06 0 0)
(0.000409172 -3.18922e-05 0 2.67095e-06 0 0)
(0.000363296 -3.05658e-05 0 2.74079e-06 0 0)
(0.000327928 -2.92152e-05 0 2.769e-06 0 0)
(0.000296993 -2.83073e-05 0 2.89001e-06 0 0)
(0.000273004 -2.72577e-05 0 2.95256e-06 0 0)
(0.000258086 -2.6761e-05 0 2.96347e-06 0 0)
(0.000239941 -2.68835e-05 0 3.21143e-06 0 0)
(0.000230974 -2.58784e-05 0 3.24962e-06 0 0)
(0.000224136 -2.49545e-05 0 3.13934e-06 0 0)
(0.000220983 -2.59523e-05 0 3.28395e-06 0 0)
(0.000215628 -2.73834e-05 0 3.77324e-06 0 0)
(0.000214303 -2.7115e-05 0 3.88571e-06 0 0)
(0.000217651 -2.69201e-05 0 3.81319e-06 0 0)
(0.000222933 -2.76277e-05 0 3.78089e-06 0 0)
(0.00022914 -2.95859e-05 0 4.17174e-06 0 0)
(0.000231977 -3.07612e-05 0 4.52207e-06 0 0)
(0.000241842 -3.23809e-05 0 4.82646e-06 0 0)
(0.000251943 -3.4124e-05 0 5.0581e-06 0 0)
(0.000263527 -3.62679e-05 0 5.40327e-06 0 0)
(0.000276198 -3.86825e-05 0 5.83222e-06 0 0)
(0.000288967 -4.11582e-05 0 6.28808e-06 0 0)
(0.000300894 -4.35458e-05 0 6.72548e-06 0 0)
(0.000312649 -4.59504e-05 0 7.16662e-06 0 0)
(0.00032481 -4.81027e-05 0 7.51469e-06 0 0)
(0.000333115 -4.95375e-05 0 7.7286e-06 0 0)
(0.000336257 -5.03519e-05 0 7.88137e-06 0 0)
(0.000336254 -5.0953e-05 0 8.0413e-06 0 0)
(0.00033552 -5.15834e-05 0 8.22775e-06 0 0)
(0.000334865 -5.22245e-05 0 8.41645e-06 0 0)
(0.000334465 -5.29139e-05 0 8.62088e-06 0 0)
(0.000333948 -5.3581e-05 0 8.83135e-06 0 0)
(0.000332821 -5.41401e-05 0 9.02666e-06 0 0)
(0.000331063 -5.4702e-05 0 9.24572e-06 0 0)
(0.000329123 -5.52978e-05 0 9.49259e-06 0 0)
(0.000326783 -5.57411e-05 0 9.70662e-06 0 0)
(0.000322749 -5.57048e-05 0 9.80932e-06 0 0)
(0.000315728 -5.49361e-05 0 9.74909e-06 0 0)
(0.00030652 -5.3749e-05 0 9.60859e-06 0 0)
(0.000297828 -5.27661e-05 0 9.52756e-06 0 0)
(0.000293842 -5.28816e-05 0 9.6916e-06 0 0)
(0.000295132 -5.41183e-05 0 1.0092e-05 0 0)
(0.000297318 -5.51802e-05 0 1.04054e-05 0 0)
(0.000291858 -5.38871e-05 0 1.01207e-05 0 0)
(0.00027377 -4.93059e-05 0 9.0684e-06 0 0)
(0.000241925 -4.21136e-05 0 7.53556e-06 0 0)
(0.000199639 -3.34874e-05 0 5.82702e-06 0 0)
(0.00015333 -2.47208e-05 0 4.18581e-06 0 0)
(0.000108609 -1.65982e-05 0 2.72218e-06 0 0)
(6.97544e-05 -9.90971e-06 0 1.58282e-06 0 0)
(4.03148e-05 -5.26149e-06 0 8.57788e-07 0 0)
(2.12705e-05 -2.59466e-06 0 4.88078e-07 0 0)
(1.08916e-05 -1.34701e-06 0 3.40318e-07 0 0)
(6.07394e-06 -8.61862e-07 0 2.97924e-07 0 0)
(4.09516e-06 -6.81964e-07 0 2.89723e-07 0 0)
(3.26674e-06 -5.94468e-07 0 2.84589e-07 0 0)
(2.81784e-06 -5.34554e-07 0 2.77357e-07 0 0)
(2.50907e-06 -4.8525e-07 0 2.70276e-07 0 0)
(2.27657e-06 -4.42091e-07 0 2.63427e-07 0 0)
(2.09864e-06 -4.08681e-07 0 2.59384e-07 0 0)
(1.96549e-06 -3.82372e-07 0 2.58722e-07 0 0)
(1.86538e-06 -3.61815e-07 0 2.64458e-07 0 0)
(1.78388e-06 -3.47064e-07 0 2.73195e-07 0 0)
(1.71707e-06 -3.43741e-07 0 2.84368e-07 0 0)
(1.64277e-06 -3.27843e-07 0 2.97742e-07 0 0)
(1.67497e-06 -3.6475e-07 0 3.31948e-07 0 0)
(1.97226e-06 -5.00497e-07 0 4.15754e-07 0 0)
(2.50989e-06 -6.81748e-07 0 5.43232e-07 0 0)
(3.30484e-06 -8.91063e-07 0 7.04528e-07 0 0)
(4.19106e-06 -1.02451e-06 0 8.66233e-07 0 0)
(4.89662e-06 -9.29495e-07 0 9.49847e-07 0 0)
(4.89885e-06 -5.92501e-07 0 8.96819e-07 0 0)
(4.56702e-06 -3.78119e-07 0 6.0074e-07 0 0)
(3.5958e-06 9.83191e-08 0 5.02018e-07 0 0)
(1.8726e-06 -2.59355e-07 0 4.84749e-07 0 0)
(2.66288e-06 -4.47554e-07 0 3.43301e-07 0 0)
(6.48774e-06 -1.90452e-07 0 7.51484e-07 0 0)
(1.22362e-05 3.90527e-07 0 1.05951e-06 0 0)
(1.98491e-05 1.55185e-06 0 2.15293e-06 0 0)
(2.80499e-05 4.61317e-06 0 3.58428e-06 0 0)
(2.739e-05 7.50791e-06 0 4.07705e-06 0 0)
(2.64921e-05 8.62007e-06 0 4.97237e-06 0 0)
(2.52879e-05 9.96952e-06 0 5.6071e-06 0 0)
(2.06078e-05 1.00383e-05 0 7.02191e-06 0 0)
(1.45965e-05 8.19146e-06 0 8.01274e-06 0 0)
(9.22661e-06 5.81469e-06 0 7.24041e-06 0 0)
(5.48482e-06 3.86636e-06 0 4.42015e-06 0 0)
(2.87553e-06 2.07188e-06 0 3.32014e-06 0 0)
(1.35123e-06 9.39132e-07 0 2.11525e-06 0 0)
(7.4117e-07 4.58844e-07 0 1.37028e-06 0 0)
(5.01196e-07 3.05077e-07 0 8.25915e-07 0 0)
(3.88344e-07 2.73867e-07 0 5.10954e-07 0 0)
(3.33526e-07 2.60644e-07 0 3.40407e-07 0 0)
(3.05613e-07 2.42605e-07 0 2.56125e-07 0 0)
(3.07693e-07 2.288e-07 0 2.04265e-07 0 0)
(3.1038e-07 2.27347e-07 0 1.89065e-07 0 0)
(3.14147e-07 2.28421e-07 0 1.82989e-07 0 0)
(3.20489e-07 2.38918e-07 0 1.91976e-07 0 0)
(3.25962e-07 2.59402e-07 0 2.17371e-07 0 0)
(3.40369e-07 2.96578e-07 0 2.68082e-07 0 0)
(3.51965e-07 3.54027e-07 0 3.66617e-07 0 0)
(3.69498e-07 4.44677e-07 0 5.50208e-07 0 0)
(3.56375e-07 5.53224e-07 0 8.73519e-07 0 0)
(2.96653e-07 6.46965e-07 0 1.43184e-06 0 0)
(1.78488e-07 6.20981e-07 0 2.20383e-06 0 0)
(5.37656e-08 4.01058e-07 0 3.19298e-06 0 0)
(3.26171e-09 -9.01587e-08 0 4.24095e-06 0 0)
(3.16259e-09 -8.77808e-08 0 4.24075e-06 0 0)
(5.37459e-08 4.00957e-07 0 3.19247e-06 0 0)
(1.78444e-07 6.20857e-07 0 2.20343e-06 0 0)
(2.96572e-07 6.46806e-07 0 1.43155e-06 0 0)
(3.56204e-07 5.53038e-07 0 8.73356e-07 0 0)
(3.69264e-07 4.44515e-07 0 5.50149e-07 0 0)
(3.51912e-07 3.53961e-07 0 3.6652e-07 0 0)
(3.4031e-07 2.96523e-07 0 2.68026e-07 0 0)
(3.25902e-07 2.59364e-07 0 2.17341e-07 0 0)
(3.20448e-07 2.38897e-07 0 1.91944e-07 0 0)
(3.14149e-07 2.28434e-07 0 1.82952e-07 0 0)
(3.10436e-07 2.27396e-07 0 1.88992e-07 0 0)
(3.07693e-07 2.28934e-07 0 2.04239e-07 0 0)
(3.05568e-07 2.42796e-07 0 2.55877e-07 0 0)
(3.32211e-07 2.60733e-07 0 3.39691e-07 0 0)
(3.83946e-07 2.72666e-07 0 5.08139e-07 0 0)
(4.89443e-07 2.93871e-07 0 8.22689e-07 0 0)
(6.8627e-07 3.9606e-07 0 1.38959e-06 0 0)
(1.13735e-06 7.46236e-07 0 2.17673e-06 0 0)
(2.24379e-06 1.67166e-06 0 3.36499e-06 0 0)
(4.20539e-06 3.19838e-06 0 4.39751e-06 0 0)
(6.81285e-06 4.69783e-06 0 6.67465e-06 0 0)
(1.04778e-05 6.55292e-06 0 7.43832e-06 0 0)
(1.42799e-05 8.06004e-06 0 7.01889e-06 0 0)
(1.78807e-05 8.11358e-06 0 5.80118e-06 0 0)
(1.97397e-05 7.33534e-06 0 4.89495e-06 0 0)
(2.06549e-05 6.13047e-06 0 3.78475e-06 0 0)
(2.07229e-05 4.75418e-06 0 3.27943e-06 0 0)
(1.97776e-05 3.35068e-06 0 2.30269e-06 0 0)
(1.87117e-05 1.90395e-06 0 1.05726e-06 0 0)
(1.7e-05 9.3125e-07 0 3.82293e-07 0 0)
(1.55674e-05 5.8678e-07 0 1.63024e-07 0 0)
(1.49229e-05 6.2663e-07 0 1.32131e-07 0 0)
(1.38581e-05 5.03504e-07 0 1.11365e-07 0 0)
(1.2623e-05 3.20771e-07 0 7.05934e-08 0 0)
(1.15409e-05 4.65467e-08 0 4.63749e-08 0 0)
(1.07944e-05 -1.49947e-07 0 4.25301e-08 0 0)
(1.00487e-05 -2.09912e-07 0 4.02394e-08 0 0)
(9.42474e-06 -1.76972e-07 0 2.91668e-08 0 0)
(8.84168e-06 -1.76797e-07 0 2.8457e-08 0 0)
(8.3251e-06 -1.54786e-07 0 2.51224e-08 0 0)
(7.85445e-06 -1.58181e-07 0 2.19712e-08 0 0)
(7.41522e-06 -1.49938e-07 0 1.91567e-08 0 0)
(7.00482e-06 -1.56641e-07 0 1.77076e-08 0 0)
(6.61344e-06 -1.27324e-07 0 1.64901e-08 0 0)
(6.25588e-06 -9.36548e-08 0 1.65392e-08 0 0)
(5.90887e-06 -7.02673e-08 0 1.61488e-08 0 0)
(5.59324e-06 -5.26891e-08 0 1.49358e-08 0 0)
(5.29762e-06 -4.74473e-08 0 1.44922e-08 0 0)
(5.00507e-06 -1.0624e-08 0 1.39067e-08 0 0)
(4.74447e-06 2.42795e-08 0 1.62261e-08 0 0)
(4.48021e-06 1.73019e-08 0 2.21951e-08 0 0)
(4.24035e-06 2.11345e-09 0 2.20739e-08 0 0)
(3.98897e-06 4.31143e-08 0 2.20879e-08 0 0)
(3.79902e-06 9.28364e-08 0 2.68882e-08 0 0)
(3.56766e-06 1.04983e-07 0 2.58234e-08 0 0)
(3.39823e-06 7.21006e-08 0 2.61705e-08 0 0)
(3.19262e-06 2.92991e-08 0 2.51942e-08 0 0)
(3.0117e-06 5.67487e-08 0 2.76278e-08 0 0)
(2.81284e-06 7.69675e-08 0 3.09699e-08 0 0)
(2.65209e-06 8.92007e-08 0 3.47328e-08 0 0)
(2.49589e-06 7.98808e-08 0 3.86264e-08 0 0)
(2.34513e-06 1.06834e-07 0 4.08341e-08 0 0)
(2.20616e-06 1.34677e-07 0 5.04835e-08 0 0)
(2.07501e-06 1.26063e-07 0 5.92987e-08 0 0)
(1.92637e-06 1.27378e-07 0 6.03143e-08 0 0)
(1.86149e-06 1.39175e-07 0 5.71961e-08 0 0)
(1.73559e-06 1.38939e-07 0 5.72097e-08 0 0)
(1.58688e-06 1.39222e-07 0 7.25297e-08 0 0)
(1.52688e-06 1.29351e-07 0 6.28039e-08 0 0)
(1.4283e-06 1.3523e-07 0 7.16866e-08 0 0)
(1.32543e-06 1.28175e-07 0 7.88712e-08 0 0)
(1.24837e-06 1.25035e-07 0 7.75897e-08 0 0)
(1.16884e-06 1.21443e-07 0 7.95415e-08 0 0)
(1.08784e-06 1.16782e-07 0 8.34222e-08 0 0)
(1.01609e-06 1.10165e-07 0 8.40037e-08 0 0)
(9.52842e-07 1.06276e-07 0 8.78769e-08 0 0)
(8.88201e-07 1.02878e-07 0 8.96615e-08 0 0)
(8.31523e-07 9.66502e-08 0 8.81256e-08 0 0)
(7.74618e-07 9.11386e-08 0 9.45689e-08 0 0)
(7.16045e-07 8.62243e-08 0 9.51656e-08 0 0)
(6.63958e-07 7.84852e-08 0 9.49736e-08 0 0)
(6.19775e-07 6.86245e-08 0 9.12837e-08 0 0)
(5.84791e-07 5.95581e-08 0 8.4e-08 0 0)
(5.54714e-07 5.41697e-08 0 9.31783e-08 0 0)
(5.20506e-07 5.69021e-08 0 1.02117e-07 0 0)
(4.89213e-07 6.02871e-08 0 1.15456e-07 0 0)
(4.5649e-07 6.53194e-08 0 1.36876e-07 0 0)
(4.2163e-07 6.51364e-08 0 1.59468e-07 0 0)
(3.89686e-07 5.58814e-08 0 1.83553e-07 0 0)
(3.65206e-07 4.39375e-08 0 1.91172e-07 0 0)
(3.53039e-07 2.76283e-08 0 1.97084e-07 0 0)
(3.46305e-07 2.67463e-08 0 1.61421e-07 0 0)
(3.37244e-07 4.62454e-08 0 1.36533e-07 0 0)
(3.29486e-07 5.98481e-08 0 1.54064e-07 0 0)
(3.29673e-07 5.56721e-08 0 1.77372e-07 0 0)
(3.258e-07 5.38344e-08 0 2.13335e-07 0 0)
(3.27363e-07 4.69526e-08 0 2.3125e-07 0 0)
(3.30691e-07 4.46506e-08 0 2.61871e-07 0 0)
(3.34511e-07 3.3904e-08 0 2.92896e-07 0 0)
(3.42856e-07 2.51036e-08 0 3.394e-07 0 0)
(3.58727e-07 3.52973e-08 0 4.13368e-07 0 0)
(4.03567e-07 6.45186e-08 0 4.6339e-07 0 0)
(3.59667e-07 5.85324e-08 0 3.23091e-07 0 0)
(3.27603e-07 5.66112e-08 0 1.66511e-07 0 0)
(2.79776e-07 3.35394e-08 0 1.06041e-07 0 0)
(2.7588e-07 4.81885e-08 0 1.76767e-07 0 0)
(2.65909e-07 3.29442e-08 0 2.54108e-07 0 0)
(2.16849e-07 3.10244e-08 0 1.64982e-07 0 0)
(1.9352e-07 2.91485e-08 0 1.14359e-07 0 0)
(1.50416e-07 2.32379e-08 0 7.0342e-08 0 0)
(1.31695e-07 1.80472e-08 0 5.26766e-08 0 0)
(1.17042e-07 1.56567e-08 0 4.85867e-08 0 0)
(1.07462e-07 6.97184e-09 0 3.42024e-08 0 0)
(1.20207e-07 -9.60005e-09 0 8.97551e-08 0 0)
(1.69259e-07 -2.49374e-08 0 2.45328e-07 0 0)
(1.27107e-07 -2.28959e-08 0 1.59954e-07 0 0)
(1.24279e-07 -1.72441e-07 0 4.0224e-07 0 0)
(2.11621e-07 -3.80852e-07 0 1.14519e-06 0 0)
(3.70073e-07 -7.3198e-07 0 1.64063e-06 0 0)
(4.82529e-07 -8.62451e-07 0 1.94001e-06 0 0)
(4.40523e-07 -8.38923e-07 0 1.98503e-06 0 0)
(4.6559e-07 -8.52184e-07 0 2.0284e-06 0 0)
(4.94181e-07 -9.37455e-07 0 2.30655e-06 0 0)
(4.03604e-07 -7.00788e-07 0 1.81731e-06 0 0)
(5.71494e-07 -1.03794e-06 0 2.53418e-06 0 0)
(4.46149e-07 -7.65672e-07 0 2.07085e-06 0 0)
(4.78637e-07 -7.72139e-07 0 1.99265e-06 0 0)
(5.20618e-07 -9.12458e-07 0 2.52285e-06 0 0)
(4.30913e-07 -6.96911e-07 0 1.95493e-06 0 0)
(5.07121e-07 -9.24818e-07 0 2.49586e-06 0 0)
(2.99144e-07 -4.72243e-07 0 1.45856e-06 0 0)
(2.38635e-07 -3.6125e-07 0 1.08959e-06 0 0)
(1.54947e-07 -1.17353e-07 0 3.20162e-07 0 0)
(1.90297e-07 -1.19938e-07 0 3.03356e-07 0 0)
(2.1544e-07 -9.84804e-08 0 2.55203e-07 0 0)
(1.36377e-07 -1.34657e-07 0 3.24509e-07 0 0)
(7.77356e-08 -7.01188e-08 0 1.71188e-07 0 0)
(1.57532e-07 -6.0349e-08 0 1.01734e-07 0 0)
(2.15769e-07 -2.80561e-08 0 5.84386e-08 0 0)
(2.94814e-07 -1.81948e-08 0 5.58803e-08 0 0)
(2.68313e-07 -1.86576e-08 0 3.78597e-08 0 0)
(2.90161e-07 -1.01075e-08 0 2.77066e-09 0 0)
(3.18132e-07 -2.35243e-08 0 2.42738e-08 0 0)
(3.24187e-07 -2.15204e-08 0 3.13117e-08 0 0)
(3.55197e-07 -2.55439e-08 0 4.7844e-08 0 0)
(3.72955e-07 -2.83194e-08 0 6.43687e-08 0 0)
(4.05733e-07 -4.07052e-08 0 8.31517e-08 0 0)
(4.31375e-07 -5.07206e-08 0 1.07495e-07 0 0)
(4.53412e-07 -6.15298e-08 0 5.35914e-08 0 0)
(5.01848e-07 -5.03079e-08 0 1.53642e-07 0 0)
(5.33736e-07 -6.68791e-08 0 1.70112e-07 0 0)
(5.59269e-07 -7.96348e-08 0 9.40379e-08 0 0)
(5.95942e-07 -9.35755e-08 0 1.09735e-07 0 0)
(6.34557e-07 -1.05218e-07 0 1.30188e-07 0 0)
(6.76284e-07 -1.1831e-07 0 1.39187e-07 0 0)
(7.18207e-07 -1.31475e-07 0 1.44189e-07 0 0)
(7.61262e-07 -1.45735e-07 0 1.31254e-07 0 0)
(8.08484e-07 -1.62536e-07 0 1.0962e-07 0 0)
(8.5642e-07 -1.79771e-07 0 1.04938e-07 0 0)
(9.15491e-07 -1.99299e-07 0 8.64101e-08 0 0)
(9.65399e-07 -2.2404e-07 0 7.50793e-08 0 0)
(1.02691e-06 -2.52275e-07 0 7.94335e-08 0 0)
(1.09335e-06 -2.83102e-07 0 8.79459e-08 0 0)
(1.16465e-06 -3.1983e-07 0 9.66703e-08 0 0)
(1.24059e-06 -3.59981e-07 0 1.08198e-07 0 0)
(1.32694e-06 -4.05658e-07 0 1.2478e-07 0 0)
(1.42315e-06 -4.60837e-07 0 1.49613e-07 0 0)
(1.53068e-06 -5.33541e-07 0 1.8638e-07 0 0)
(1.63897e-06 -6.15347e-07 0 2.31342e-07 0 0)
(1.74222e-06 -6.90408e-07 0 2.74371e-07 0 0)
(1.87372e-06 -7.95087e-07 0 3.37451e-07 0 0)
(2.01135e-06 -9.17642e-07 0 4.18706e-07 0 0)
(2.18772e-06 -1.0908e-06 0 5.43895e-07 0 0)
(2.39524e-06 -1.3321e-06 0 7.40862e-07 0 0)
(2.67623e-06 -1.66774e-06 0 1.0393e-06 0 0)
(2.78445e-06 -1.90598e-06 0 1.30468e-06 0 0)
(2.84097e-06 -2.36916e-06 0 1.97588e-06 0 0)
(2.79255e-06 -2.70762e-06 0 2.6259e-06 0 0)
(2.60469e-06 -2.85676e-06 0 3.13326e-06 0 0)
(3.37658e-06 -3.87182e-06 0 4.44159e-06 0 0)
(1.32915e-06 -2.56742e-06 0 4.99466e-06 0 0)
(8.32388e-07 -2.06295e-06 0 5.11684e-06 0 0)
(2.43369e-07 -1.09338e-06 0 4.92094e-06 0 0)
(8.15914e-10 -4.74592e-08 0 3.6102e-06 0 0)
(7.59056e-08 4.26779e-07 0 2.41322e-06 0 0)
(8.13047e-08 3.24495e-07 0 1.32024e-06 0 0)
(8.30049e-08 1.93929e-07 0 4.78546e-07 0 0)
(1.5247e-07 1.25236e-07 0 1.26956e-07 0 0)
(1.09943e-07 1.00058e-07 0 1.37104e-07 0 0)
(7.34698e-08 1.22432e-07 0 4.09592e-07 0 0)
(2.02746e-07 1.44045e-07 0 2.16083e-06 0 0)
(3.56776e-07 4.26812e-07 0 2.8982e-06 0 0)
(6.60906e-07 8.70272e-07 0 2.8563e-06 0 0)
(7.49782e-07 1.53935e-06 0 4.87891e-06 0 0)
(1.05964e-06 2.66189e-06 0 7.85926e-06 0 0)
(1.67027e-06 4.46482e-06 0 1.27533e-05 0 0)
(3.05606e-06 7.87024e-06 0 2.10222e-05 0 0)
(5.0005e-06 1.14857e-05 0 2.75236e-05 0 0)
(7.6655e-06 1.62504e-05 0 3.57825e-05 0 0)
(9.15704e-06 1.79068e-05 0 3.6193e-05 0 0)
(9.99778e-06 1.87461e-05 0 3.61385e-05 0 0)
(9.66456e-06 1.79097e-05 0 3.40097e-05 0 0)
(8.22715e-06 1.5163e-05 0 2.86151e-05 0 0)
(6.01856e-06 1.13659e-05 0 2.19695e-05 0 0)
(3.9544e-06 7.69754e-06 0 1.55272e-05 0 0)
(2.56518e-06 5.23437e-06 0 1.12438e-05 0 0)
(1.79499e-06 3.78443e-06 0 8.48853e-06 0 0)
(1.29887e-06 2.77249e-06 0 6.39106e-06 0 0)
(9.60049e-07 2.08126e-06 0 4.96273e-06 0 0)
(7.32767e-07 1.61073e-06 0 3.95107e-06 0 0)
(5.76371e-07 1.23698e-06 0 3.04723e-06 0 0)
(4.93001e-07 1.02184e-06 0 2.53007e-06 0 0)
(4.86827e-07 1.02143e-06 0 2.57646e-06 0 0)
(6.0439e-07 1.22802e-06 0 3.12904e-06 0 0)
(8.61339e-07 1.55646e-06 0 3.98747e-06 0 0)
(1.14326e-06 1.95379e-06 0 4.96655e-06 0 0)
(1.33721e-06 2.35115e-06 0 5.94483e-06 0 0)
(1.38823e-06 2.57918e-06 0 6.4723e-06 0 0)
(1.35362e-06 2.70611e-06 0 6.84781e-06 0 0)
(1.36831e-06 2.88751e-06 0 7.31824e-06 0 0)
(1.39906e-06 2.82927e-06 0 6.95946e-06 0 0)
(1.42988e-06 2.66325e-06 0 6.4245e-06 0 0)
(1.50323e-06 2.54777e-06 0 6.10883e-06 0 0)
(1.59057e-06 2.41963e-06 0 5.7792e-06 0 0)
(1.68512e-06 2.3035e-06 0 5.49864e-06 0 0)
(1.82592e-06 2.24061e-06 0 5.34651e-06 0 0)
(1.99895e-06 2.21299e-06 0 5.25618e-06 0 0)
(2.19124e-06 2.20152e-06 0 5.2148e-06 0 0)
(2.44e-06 2.21728e-06 0 5.19397e-06 0 0)
(2.78156e-06 2.23936e-06 0 5.22534e-06 0 0)
(3.26249e-06 2.47552e-06 0 5.68053e-06 0 0)
(3.74925e-06 2.50033e-06 0 5.56021e-06 0 0)
(4.28709e-06 2.58287e-06 0 5.63364e-06 0 0)
(4.7657e-06 2.56914e-06 0 5.51035e-06 0 0)
(5.20879e-06 2.53518e-06 0 5.37977e-06 0 0)
(5.63853e-06 2.51405e-06 0 5.31619e-06 0 0)
(6.13571e-06 2.5205e-06 0 5.3451e-06 0 0)
(6.66359e-06 2.48819e-06 0 5.25386e-06 0 0)
(7.24406e-06 2.51082e-06 0 5.3344e-06 0 0)
(7.80286e-06 2.45837e-06 0 5.18815e-06 0 0)
(8.32802e-06 2.48636e-06 0 5.26596e-06 0 0)
(8.74508e-06 2.40517e-06 0 5.04582e-06 0 0)
(9.18477e-06 2.45618e-06 0 5.15607e-06 0 0)
(9.47455e-06 2.31961e-06 0 4.87425e-06 0 0)
(9.83267e-06 2.35406e-06 0 4.91008e-06 0 0)
(1.02429e-05 2.1027e-06 0 4.55473e-06 0 0)
(1.06259e-05 2.53125e-06 0 4.91536e-06 0 0)
(1.11592e-05 2.17538e-06 0 4.59242e-06 0 0)
(1.15668e-05 2.1413e-06 0 4.54522e-06 0 0)
(1.33925e-05 2.57768e-06 0 5.08642e-06 0 0)
(1.24454e-05 2.1007e-06 0 4.36053e-06 0 0)
(1.56831e-05 2.78745e-06 0 4.36672e-06 0 0)
(3.66858e-05 -8.93158e-06 0 1.05305e-05 0 0)
(0.000554576 -5.93242e-05 0 1.80278e-05 0 0)
(0.000653017 9.15539e-05 0 1.73785e-05 0 0)
(7.92682e-05 -2.62377e-06 0 7.37682e-06 0 0)
(0.000300822 -2.64802e-05 0 2.60031e-06 0 0)
(0.000428687 -2.77888e-05 0 2.44477e-06 0 0)
(0.000427977 -2.43805e-05 0 2.60527e-06 0 0)
(0.000402978 -2.36654e-05 0 2.9015e-06 0 0)
(0.000358552 -2.21441e-05 0 2.78857e-06 0 0)
(0.000324176 -2.11851e-05 0 2.63899e-06 0 0)
(0.000292108 -2.06275e-05 0 2.57837e-06 0 0)
(0.000265875 -2.05386e-05 0 2.65273e-06 0 0)
(0.000244483 -1.95058e-05 0 2.62038e-06 0 0)
(0.000227264 -1.97679e-05 0 2.97366e-06 0 0)
(0.000215643 -2.16925e-05 0 3.2894e-06 0 0)
(0.000204548 -2.25474e-05 0 3.4125e-06 0 0)
(0.000199065 -2.04389e-05 0 3.52149e-06 0 0)
(0.000193841 -1.90142e-05 0 3.16495e-06 0 0)
(0.000192726 -2.13676e-05 0 3.38064e-06 0 0)
(0.000191105 -2.37762e-05 0 4.06193e-06 0 0)
(0.000191418 -2.4033e-05 0 4.60617e-06 0 0)
(0.00019498 -2.37871e-05 0 4.37123e-06 0 0)
(0.000198955 -2.55924e-05 0 4.48944e-06 0 0)
(0.000204847 -2.82493e-05 0 5.01178e-06 0 0)
(0.000210435 -3.05534e-05 0 5.65244e-06 0 0)
(0.000218553 -3.23836e-05 0 6.10865e-06 0 0)
(0.000227874 -3.44311e-05 0 6.35573e-06 0 0)
(0.000239033 -3.709e-05 0 6.7605e-06 0 0)
(0.000251614 -3.99553e-05 0 7.28488e-06 0 0)
(0.000265191 -4.26311e-05 0 7.76519e-06 0 0)
(0.000279349 -4.55576e-05 0 8.2789e-06 0 0)
(0.000294224 -4.89161e-05 0 8.89528e-06 0 0)
(0.000310119 -5.16623e-05 0 9.30035e-06 0 0)
(0.000325126 -5.40441e-05 0 9.61785e-06 0 0)
(0.000337574 -5.62373e-05 0 9.9487e-06 0 0)
(0.000347259 -5.82523e-05 0 1.02977e-05 0 0)
(0.000354621 -5.99469e-05 0 1.06104e-05 0 0)
(0.000360062 -6.13113e-05 0 1.08726e-05 0 0)
(0.000364149 -6.24828e-05 0 1.11192e-05 0 0)