/*--------------------------------*- C++ -*----------------------------------*\
| =========                 |                                                 |
| \\      /  F ield         | OpenFOAM: The Open Source CFD Toolbox           |
|  \\    /   O peration     | Version:  v2006                                 |
|   \\  /    A nd           | Website:  www.openfoam.com                      |
|    \\/     M anipulation  |                                                 |
\*---------------------------------------------------------------------------*/
FoamFile
{
    version     2.0;
    format      ascii;
    class       volVectorField;
    location    "185";
    object      rhoUMean;
}
// * * * * * * * * * * * * * * * * * * * * * * * * * * * * * * * * * * * * * //

dimensions      [1 -2 -1 0 0 0 0];


internalField   nonuniform List<vector> 
93840
(
(0.852777 0.0443917 0)
(0.854361 0.0431028 0)
(0.855335 0.0412739 0)
(0.856072 0.0392191 0)
(0.856289 0.0371046 0)
(0.856336 0.0350349 0)
(0.856076 0.0329286 0)
(0.855749 0.0307022 0)
(0.855171 0.0283082 0)
(0.854431 0.0256506 0)
(0.853335 0.0227967 0)
(0.851896 0.0197455 0)
(0.849962 0.0166028 0)
(0.847539 0.0134537 0)
(0.844585 0.0104746 0)
(0.841042 0.00785331 0)
(0.836225 0.00587959 0)
(0.828423 0.00482788 0)
(0.81552 0.00477642 0)
(0.795234 0.00554109 0)
(0.766704 0.00666184 0)
(0.731242 0.00788734 0)
(0.690645 0.00871293 0)
(0.64727 0.00874459 0)
(0.604379 0.00813397 0)
(0.564238 0.00713082 0)
(0.528325 0.00561909 0)
(0.496796 0.00349154 0)
(0.470145 0.00052154 0)
(0.450781 -0.00201662 0)
(0.439253 -0.00304884 0)
(0.433601 -0.00336695 0)
(0.472646 -0.0197381 0)
(0.490815 -0.0320372 0)
(0.486329 -0.0285143 0)
(0.486062 -0.0265719 0)
(0.482969 -0.0252952 0)
(0.480527 -0.0245485 0)
(0.477039 -0.0234546 0)
(0.473658 -0.0219832 0)
(0.470852 -0.0204334 0)
(0.468118 -0.0192607 0)
(0.465475 -0.0180649 0)
(0.462887 -0.0170245 0)
(0.460144 -0.0161898 0)
(0.457038 -0.0151672 0)
(0.453935 -0.0137034 0)
(0.451426 -0.0122725 0)
(0.44869 -0.0112634 0)
(0.445744 -0.00994868 0)
(0.443341 -0.00840812 0)
(0.441058 -0.00735575 0)
(0.437783 -0.00658009 0)
(0.433838 -0.0041306 0)
(0.432555 -0.00104023 0)
(0.43204 0.000347729 0)
(0.430968 0.000408135 0)
(0.428475 0.000744687 0)
(0.425019 0.00206504 0)
(0.422652 0.00472897 0)
(0.421243 0.00637141 0)
(0.419058 0.00746129 0)
(0.41712 0.00991211 0)
(0.416458 0.0122375 0)
(0.415756 0.0135668 0)
(0.414642 0.0153457 0)
(0.414432 0.017578 0)
(0.414813 0.0189394 0)
(0.414711 0.0205789 0)
(0.414735 0.0224266 0)
(0.415303 0.023954 0)
(0.415754 0.0256025 0)
(0.416472 0.0274995 0)
(0.417872 0.02913 0)
(0.41917 0.0307419 0)
(0.420556 0.0325199 0)
(0.422343 0.0341748 0)
(0.424171 0.035994 0)
(0.426486 0.0377672 0)
(0.429056 0.0392889 0)
(0.431491 0.0409333 0)
(0.434012 0.0427092 0)
(0.43678 0.0446713 0)
(0.440125 0.0466552 0)
(0.443884 0.0483591 0)
(0.447618 0.0501225 0)
(0.451567 0.0518691 0)
(0.45559 0.0535668 0)
(0.45957 0.0554311 0)
(0.463754 0.0575666 0)
(0.468598 0.0598636 0)
(0.47416 0.0618914 0)
(0.47986 0.0638317 0)
(0.485778 0.0657284 0)
(0.491994 0.0675751 0)
(0.498597 0.0693053 0)
(0.505673 0.0709025 0)
(0.512452 0.0724795 0)
(0.519825 0.0741128 0)
(0.527459 0.0757461 0)
(0.536384 0.0771106 0)
(0.543871 0.0784614 0)
(0.549919 0.0803658 0)
(0.560198 0.0831813 0)
(0.576339 0.0813761 0)
(0.58208 0.078785 0)
(0.586355 0.0800865 0)
(0.592515 0.0817357 0)
(0.605546 0.0816848 0)
(0.615258 0.0811332 0)
(0.625104 0.0798578 0)
(0.634293 0.0783531 0)
(0.643345 0.076583 0)
(0.65329 0.0747847 0)
(0.663366 0.0714147 0)
(0.672489 0.0679538 0)
(0.68069 0.0639292 0)
(0.689196 0.0605798 0)
(0.697863 0.0551394 0)
(0.706516 0.0504862 0)
(0.713174 0.043711 0)
(0.722466 0.0382207 0)
(0.727505 0.0294945 0)
(0.735238 0.023365 0)
(0.737956 0.0129526 0)
(0.741545 0.00796091 0)
(0.746155 -0.000924806 0)
(0.745457 -0.00719564 0)
(0.749962 -0.0119507 0)
(0.751948 -0.020625 0)
(0.752088 -0.0249909 0)
(0.754949 -0.0316663 0)
(0.754829 -0.0354034 0)
(0.757402 -0.0405566 0)
(0.757777 -0.0451843 0)
(0.758656 -0.0507221 0)
(0.758412 -0.0544876 0)
(0.759996 -0.0587789 0)
(0.760479 -0.0624322 0)
(0.762053 -0.0662738 0)
(0.762998 -0.0704103 0)
(0.763754 -0.0750472 0)
(0.763138 -0.07835 0)
(0.763664 -0.0821228 0)
(0.763984 -0.0859628 0)
(0.764302 -0.0898998 0)
(0.764775 -0.0941776 0)
(0.76485 -0.0989019 0)
(0.764468 -0.104154 0)
(0.763398 -0.107753 0)
(0.7624 -0.112809 0)
(0.761561 -0.118208 0)
(0.760048 -0.122686 0)
(0.758012 -0.127792 0)
(0.755723 -0.132937 0)
(0.753078 -0.138276 0)
(0.749913 -0.143737 0)
(0.74621 -0.149365 0)
(0.741737 -0.154775 0)
(0.736667 -0.159555 0)
(0.731926 -0.164598 0)
(0.726918 -0.170919 0)
(0.720601 -0.177854 0)
(0.713153 -0.184715 0)
(0.704724 -0.191856 0)
(0.69482 -0.199085 0)
(0.683367 -0.205776 0)
(0.670976 -0.211962 0)
(0.657907 -0.21916 0)
(0.642453 -0.228107 0)
(0.623513 -0.23652 0)
(0.601496 -0.242972 0)
(0.577624 -0.247689 0)
(0.551431 -0.253655 0)
(0.518689 -0.261207 0)
(0.480618 -0.26511 0)
(0.438514 -0.260901 0)
(0.382262 -0.250113 0)
(0.3096 -0.217057 0)
(0.216656 -0.167132 0)
(0.114288 -0.0861311 0)
(0.020353 0.0763395 0)
(-0.00400795 0.258856 0)
(0.0142882 0.46922 0)
(0.120639 0.609293 0)
(0.227431 0.700743 0)
(0.35225 0.699581 0)
(0.478082 0.653356 0)
(0.582181 0.56734 0)
(0.631651 0.534889 0)
(0.667294 0.507779 0)
(0.697686 0.463265 0)
(0.718346 0.41796 0)
(0.73362 0.382472 0)
(0.741983 0.347815 0)
(0.747815 0.321306 0)
(0.752495 0.299243 0)
(0.755571 0.278772 0)
(0.758189 0.262349 0)
(0.759308 0.24615 0)
(0.759966 0.234026 0)
(0.759838 0.22321 0)
(0.759163 0.212566 0)
(0.758224 0.202877 0)
(0.757089 0.193572 0)
(0.755946 0.185595 0)
(0.754642 0.178251 0)
(0.753054 0.170966 0)
(0.751244 0.164148 0)
(0.749218 0.157674 0)
(0.747013 0.150947 0)
(0.744666 0.144525 0)
(0.742153 0.13831 0)
(0.73948 0.132096 0)
(0.736584 0.126304 0)
(0.7333 0.121003 0)
(0.729755 0.11609 0)
(0.726033 0.110867 0)
(0.72212 0.105835 0)
(0.718178 0.100706 0)
(0.714426 0.0946052 0)
(0.710414 0.0890731 0)
(0.706276 0.0848306 0)
(0.70221 0.0808762 0)
(0.698169 0.0772737 0)
(0.694132 0.0740508 0)
(0.690181 0.0707918 0)
(0.686176 0.0676187 0)
(0.682151 0.0645159 0)
(0.677962 0.0616517 0)
(0.674282 0.0585054 0)
(0.67085 0.0536803 0)
(0.66703 0.0494829 0)
(0.663203 0.0450169 0)
(0.659128 0.0411099 0)
(0.654861 0.0380002 0)
(0.650786 0.0352159 0)
(0.646609 0.0322818 0)
(0.642716 0.0296793 0)
(0.638696 0.0266064 0)
(0.635046 0.0239641 0)
(0.631107 0.0207102 0)
(0.627671 0.0180536 0)
(0.623819 0.0144994 0)
(0.620515 0.0118906 0)
(0.616363 0.0085518 0)
(0.61343 0.00648894 0)
(0.609632 0.00171903 0)
(0.604744 0.000620579 0)
(0.602462 -0.00142678 0)
(0.599469 -0.00695225 0)
(0.595883 -0.00880828 0)
(0.592746 -0.0121914 0)
(0.586952 -0.0139272 0)
(0.548684 -0.0155504 0)
(0.484907 -0.015101 0)
(0.441741 -0.0171787 0)
(0.432337 -0.0205299 0)
(0.434763 -0.0239312 0)
(0.439411 -0.0266757 0)
(0.442859 -0.0291721 0)
(0.444503 -0.0313072 0)
(0.444647 -0.0335365 0)
(0.442845 -0.0355661 0)
(0.439863 -0.0375118 0)
(0.435435 -0.0389612 0)
(0.431159 -0.0405885 0)
(0.424403 -0.0427647 0)
(0.410296 -0.0444456 0)
(0.401631 -0.0422289 0)
(0.399281 -0.0413498 0)
(0.395238 -0.0435471 0)
(0.382988 -0.0459382 0)
(0.368844 -0.0442623 0)
(0.363929 -0.042394 0)
(0.35855 -0.0427201 0)
(0.349834 -0.0440444 0)
(0.339261 -0.0442739 0)
(0.327211 -0.0430567 0)
(0.316602 -0.0423029 0)
(0.305941 -0.0416522 0)
(0.29476 -0.0409223 0)
(0.283032 -0.0400032 0)
(0.271222 -0.0390416 0)
(0.259075 -0.0379141 0)
(0.246301 -0.0363693 0)
(0.233818 -0.034857 0)
(0.221656 -0.0334354 0)
(0.209664 -0.0320246 0)
(0.197783 -0.0305727 0)
(0.186085 -0.0290752 0)
(0.174641 -0.027575 0)
(0.163375 -0.0260403 0)
(0.152287 -0.0244666 0)
(0.141451 -0.0228903 0)
(0.130979 -0.0213471 0)
(0.120904 -0.0198298 0)
(0.111146 -0.0183283 0)
(0.101535 -0.0167777 0)
(0.0921371 -0.0152193 0)
(0.0831118 -0.0137007 0)
(0.0746349 -0.0123247 0)
(0.0665784 -0.0110278 0)
(0.058723 -0.00974264 0)
(0.0509964 -0.00840378 0)
(0.0437412 -0.0071007 0)
(0.0372276 -0.00597081 0)
(0.0315367 -0.00502489 0)
(0.026656 -0.00424527 0)
(0.0225083 -0.0035982 0)
(0.0190363 -0.00306969 0)
(0.0162306 -0.00265921 0)
(0.014052 -0.00234076 0)
(0.0124497 -0.00212453 0)
(0.0113297 -0.00198666 0)
(0.0105453 -0.00189422 0)
(0.00995126 -0.00182318 0)
(0.00944762 -0.00176056 0)
(0.00899716 -0.00168662 0)
(0.00860241 -0.0016046 0)
(0.00826427 -0.00153276 0)
(0.00797302 -0.00146963 0)
(0.00770958 -0.00142091 0)
(0.00746247 -0.00137142 0)
(0.00724335 -0.00133066 0)
(0.00714818 -0.00137415 0)
(0.00742362 -0.0016413 0)
(0.00849656 -0.00231998 0)
(0.0109977 -0.00365566 0)
(0.0156293 -0.00581075 0)
(0.0230417 -0.00898794 0)
(0.0338163 -0.0138743 0)
(0.0496603 -0.0220346 0)
(0.0691777 -0.0390867 0)
(0.100049 -0.0518105 0)
(0.120894 -0.0582004 0)
(0.213143 0.000279505 0)
(0.286935 0.0107151 0)
(0.335718 0.00898511 0)
(0.379127 0.00638855 0)
(0.424369 0.00605708 0)
(0.470687 0.00785233 0)
(0.518767 0.00879973 0)
(0.569461 0.008977 0)
(0.621721 0.00912578 0)
(0.672966 0.00871434 0)
(0.719778 0.00774707 0)
(0.759775 0.00651684 0)
(0.791497 0.0053795 0)
(0.813805 0.00465827 0)
(0.827802 0.00474936 0)
(0.836064 0.0058241 0)
(0.841031 0.00781553 0)
(0.844603 0.0104492 0)
(0.847555 0.0134388 0)
(0.849972 0.0165938 0)
(0.851904 0.0197407 0)
(0.85334 0.022794 0)
(0.854435 0.0256491 0)
(0.855173 0.0283077 0)
(0.855751 0.0307021 0)
(0.856077 0.0329288 0)
(0.856338 0.0350353 0)
(0.856289 0.0371046 0)
(0.856073 0.0392195 0)
(0.855335 0.0412743 0)
(0.854361 0.0431032 0)
(0.852777 0.0443921 0)
(0.852787 0.0443917 0)
(0.854361 0.0431023 0)
(0.855335 0.0412734 0)
(0.856072 0.0392187 0)
(0.856288 0.0371041 0)
(0.856335 0.0350351 0)
(0.856076 0.0329284 0)
(0.855748 0.0307023 0)
(0.855168 0.0283089 0)
(0.854427 0.025652 0)
(0.853329 0.0227993 0)
(0.851888 0.0197513 0)
(0.84995 0.0166124 0)
(0.847523 0.0134715 0)
(0.844565 0.0105026 0)
(0.841047 0.0078975 0)
(0.836376 0.00594143 0)
(0.829058 0.00490277 0)
(0.817244 0.00484564 0)
(0.798996 0.00559131 0)
(0.773586 0.00673337 0)
(0.742478 0.00790387 0)
(0.707556 0.00867265 0)
(0.67111 0.00849952 0)
(0.636058 0.00744607 0)
(0.604661 0.00579887 0)
(0.57812 0.00317546 0)
(0.556914 -0.000757068 0)
(0.541131 -0.00666489 0)
(0.530741 -0.0157314 0)
(0.525373 -0.0274843 0)
(0.521306 -0.035483 0)
(0.524589 -0.0336497 0)
(0.524175 -0.0344063 0)
(0.52099 -0.0294598 0)
(0.518764 -0.0266736 0)
(0.51585 -0.025239 0)
(0.512955 -0.0244889 0)
(0.509835 -0.0232296 0)
(0.506729 -0.0219524 0)
(0.503951 -0.0204607 0)
(0.501215 -0.0193293 0)
(0.498552 -0.0181362 0)
(0.495931 -0.0170556 0)
(0.493132 -0.0162613 0)
(0.490194 -0.0150345 0)
(0.487268 -0.0136852 0)
(0.484746 -0.012173 0)
(0.481978 -0.0113104 0)
(0.479211 -0.0098295 0)
(0.476788 -0.0081656 0)
(0.474301 -0.00708497 0)
(0.471208 -0.00630806 0)
(0.467931 -0.00408492 0)
(0.466648 -0.00117513 0)
(0.465807 0.000193547 0)
(0.464515 0.000747654 0)
(0.462099 0.00108305 0)
(0.45893 0.00249469 0)
(0.456805 0.00503158 0)
(0.455293 0.00687496 0)
(0.453149 0.00790492 0)
(0.451456 0.0103364 0)
(0.450879 0.0126422 0)
(0.450132 0.0142591 0)
(0.449202 0.016175 0)
(0.449035 0.0183116 0)
(0.449486 0.0200885 0)
(0.449401 0.0215871 0)
(0.449486 0.0235888 0)
(0.450183 0.0254719 0)
(0.450729 0.0273725 0)
(0.451507 0.0294734 0)
(0.453013 0.0312322 0)
(0.454386 0.0330499 0)
(0.455825 0.0350475 0)
(0.457745 0.0368352 0)
(0.45964 0.0389145 0)
(0.462032 0.0408682 0)
(0.464701 0.0424512 0)
(0.467186 0.0442633 0)
(0.4698 0.0461924 0)
(0.47266 0.0483894 0)
(0.476057 0.0506013 0)
(0.479958 0.0523571 0)
(0.483757 0.0543568 0)
(0.487797 0.0562145 0)
(0.491939 0.0579383 0)
(0.496033 0.059929 0)
(0.500359 0.062265 0)
(0.505322 0.0647302 0)
(0.511128 0.0665284 0)
(0.516962 0.0684334 0)
(0.523005 0.0703535 0)
(0.529317 0.0723807 0)
(0.53601 0.0744153 0)
(0.543053 0.0760107 0)
(0.549998 0.0778615 0)
(0.557424 0.0795439 0)
(0.565223 0.0814166 0)
(0.573605 0.0825713 0)
(0.581058 0.0836028 0)
(0.587801 0.0859356 0)
(0.598753 0.0902125 0)
(0.612998 0.0881576 0)
(0.619641 0.0834669 0)
(0.624245 0.0841223 0)
(0.631302 0.0878647 0)
(0.643318 0.08766 0)
(0.653235 0.0873757 0)
(0.663047 0.086107 0)
(0.672305 0.0845652 0)
(0.681373 0.0827385 0)
(0.691195 0.0814011 0)
(0.701239 0.0779524 0)
(0.710512 0.0742409 0)
(0.719015 0.0697294 0)
(0.728274 0.0651696 0)
(0.736616 0.0584712 0)
(0.744852 0.0527442 0)
(0.751072 0.0456264 0)
(0.759615 0.039971 0)
(0.764208 0.0309225 0)
(0.77129 0.0243379 0)
(0.773481 0.0139676 0)
(0.77692 0.00817554 0)
(0.780566 -0.000528363 0)
(0.779786 -0.00784 0)
(0.783418 -0.0125933 0)
(0.784664 -0.021156 0)
(0.784325 -0.0262136 0)
(0.785913 -0.0326213 0)
(0.785424 -0.0367717 0)
(0.78728 -0.0418195 0)
(0.787528 -0.0463808 0)
(0.7878 -0.0516128 0)
(0.787062 -0.0552731 0)
(0.787705 -0.0591072 0)
(0.787605 -0.0624981 0)
(0.788454 -0.0661092 0)
(0.788885 -0.0700756 0)
(0.789115 -0.0746771 0)
(0.788143 -0.079043 0)
(0.788052 -0.0822992 0)
(0.787875 -0.0861957 0)
(0.787618 -0.0901194 0)
(0.787497 -0.0942897 0)
(0.78697 -0.098892 0)
(0.786056 -0.103682 0)
(0.784337 -0.108682 0)
(0.782843 -0.112808 0)
(0.78133 -0.117228 0)
(0.779298 -0.122513 0)
(0.776725 -0.127705 0)
(0.773833 -0.132718 0)
(0.770657 -0.137961 0)
(0.766925 -0.143272 0)
(0.762686 -0.148905 0)
(0.757641 -0.154389 0)
(0.752068 -0.158911 0)
(0.746984 -0.163513 0)
(0.741608 -0.169607 0)
(0.734822 -0.176422 0)
(0.726955 -0.183139 0)
(0.718164 -0.190171 0)
(0.707892 -0.197285 0)
(0.696219 -0.203888 0)
(0.683769 -0.209882 0)
(0.670674 -0.216667 0)
(0.655172 -0.224782 0)
(0.636202 -0.232527 0)
(0.614458 -0.238718 0)
(0.590885 -0.242969 0)
(0.56498 -0.247973 0)
(0.532631 -0.252816 0)
(0.491596 -0.250969 0)
(0.440702 -0.246941 0)
(0.383567 -0.230606 0)
(0.317998 -0.193878 0)
(0.249306 -0.131739 0)
(0.159129 -0.0459645 0)
(0.0916068 0.0821095 0)
(0.0516792 0.248002 0)
(0.0624913 0.422285 0)
(0.160858 0.576046 0)
(0.293786 0.684756 0)
(0.438382 0.701463 0)
(0.557568 0.673932 0)
(0.634859 0.598069 0)
(0.669269 0.556678 0)
(0.70774 0.519837 0)
(0.738771 0.475742 0)
(0.758868 0.430237 0)
(0.772377 0.392731 0)
(0.78025 0.358138 0)
(0.785317 0.331191 0)
(0.789471 0.308433 0)
(0.791666 0.287745 0)
(0.793649 0.270696 0)
(0.794447 0.254779 0)
(0.795153 0.242642 0)
(0.795426 0.23203 0)
(0.795286 0.221482 0)
(0.794811 0.211524 0)
(0.794073 0.201982 0)
(0.793182 0.193777 0)
(0.792127 0.186386 0)
(0.790852 0.17904 0)
(0.789381 0.17204 0)
(0.787731 0.165385 0)
(0.785893 0.158516 0)
(0.783882 0.151931 0)
(0.781709 0.145551 0)
(0.779342 0.139145 0)
(0.776748 0.133173 0)
(0.7739 0.127757 0)
(0.770895 0.122738 0)
(0.767806 0.117392 0)
(0.764604 0.11225 0)
(0.761384 0.1069 0)
(0.758191 0.100462 0)
(0.754765 0.0947754 0)
(0.751241 0.090457 0)
(0.747744 0.0864359 0)
(0.744226 0.0827472 0)
(0.74068 0.0794318 0)
(0.737166 0.0760668 0)
(0.733609 0.0727841 0)
(0.730041 0.0695929 0)
(0.726371 0.0666779 0)
(0.723017 0.0632732 0)
(0.71981 0.0580943 0)
(0.716303 0.0536275 0)
(0.712801 0.0489022 0)
(0.709104 0.0448206 0)
(0.705283 0.041591 0)
(0.701603 0.0386813 0)
(0.697859 0.0355776 0)
(0.694298 0.0328177 0)
(0.690669 0.0295068 0)
(0.687266 0.0266615 0)
(0.68368 0.0231529 0)
(0.680398 0.0202587 0)
(0.676854 0.0164351 0)
(0.673634 0.013562 0)
(0.669895 0.0100329 0)
(0.666947 0.00763056 0)
(0.663373 0.00272375 0)
(0.659301 0.00156361 0)
(0.656861 -0.000865516 0)
(0.65386 -0.00670311 0)
(0.650555 -0.00882066 0)
(0.647452 -0.0123708 0)
(0.641533 -0.0135214 0)
(0.610899 -0.0125473 0)
(0.556512 -0.013955 0)
(0.515764 -0.0212757 0)
(0.503531 -0.0265463 0)
(0.502864 -0.0305069 0)
(0.504612 -0.0334567 0)
(0.505442 -0.0366152 0)
(0.50482 -0.0391066 0)
(0.503181 -0.0415419 0)
(0.500013 -0.0435045 0)
(0.495909 -0.0455045 0)
(0.490756 -0.0467866 0)
(0.485877 -0.0485633 0)
(0.478016 -0.0512848 0)
(0.464656 -0.0533618 0)
(0.454459 -0.0505344 0)
(0.451701 -0.0494663 0)
(0.447167 -0.0522867 0)
(0.434974 -0.0548664 0)
(0.421213 -0.0534866 0)
(0.414947 -0.0509005 0)
(0.409613 -0.0515675 0)
(0.400714 -0.0531964 0)
(0.389379 -0.0531912 0)
(0.377995 -0.0516043 0)
(0.367402 -0.0508521 0)
(0.356611 -0.0501424 0)
(0.345341 -0.0492269 0)
(0.333637 -0.0480961 0)
(0.321624 -0.0469355 0)
(0.309224 -0.0454939 0)
(0.296634 -0.0436889 0)
(0.284133 -0.0420325 0)
(0.271683 -0.0404491 0)
(0.259217 -0.0388301 0)
(0.24676 -0.0371396 0)
(0.234402 -0.0354039 0)
(0.22219 -0.0336638 0)
(0.210126 -0.0318893 0)
(0.198256 -0.0300977 0)
(0.186618 -0.0283536 0)
(0.175278 -0.0266766 0)
(0.164281 -0.0250135 0)
(0.153593 -0.0233447 0)
(0.143163 -0.0216403 0)
(0.133041 -0.0199704 0)
(0.123314 -0.0184189 0)
(0.114039 -0.0170124 0)
(0.105113 -0.0156405 0)
(0.0964164 -0.0142532 0)
(0.0879853 -0.0128521 0)
(0.0800379 -0.0115718 0)
(0.0727272 -0.0105022 0)
(0.0661029 -0.00960604 0)
(0.0601415 -0.00884665 0)
(0.0548184 -0.00820441 0)
(0.0500929 -0.00767051 0)
(0.0459596 -0.0072256 0)
(0.0424244 -0.00686665 0)
(0.0394553 -0.00658628 0)
(0.0369779 -0.00635779 0)
(0.0348816 -0.00613971 0)
(0.0330621 -0.00592798 0)
(0.031441 -0.00571766 0)
(0.0299768 -0.00549378 0)
(0.0286796 -0.00528371 0)
(0.0275423 -0.00509416 0)
(0.0265456 -0.00492475 0)
(0.0256524 -0.00477089 0)
(0.0248422 -0.00465925 0)
(0.0241684 -0.00467613 0)
(0.0237528 -0.00491141 0)
(0.0238507 -0.0055947 0)
(0.0245228 -0.00705807 0)
(0.0259568 -0.00963926 0)
(0.0286394 -0.0135429 0)
(0.0331585 -0.0188912 0)
(0.0405718 -0.0259193 0)
(0.0507399 -0.0358113 0)
(0.0617112 -0.0476887 0)
(0.0759566 -0.0558525 0)
(0.0850458 -0.0634459 0)
(0.10742 -0.0423527 0)
(0.15343 -0.0169795 0)
(0.206908 -0.00104885 0)
(0.263023 0.00467255 0)
(0.322184 0.00903629 0)
(0.385838 0.00986416 0)
(0.452611 0.00998526 0)
(0.519455 0.0102961 0)
(0.585552 0.00970998 0)
(0.648373 0.00888172 0)
(0.704181 0.00774195 0)
(0.750498 0.00649036 0)
(0.78652 0.00534518 0)
(0.811517 0.00460522 0)
(0.826937 0.00467369 0)
(0.835822 0.00576443 0)
(0.841009 0.00777083 0)
(0.844622 0.0104205 0)
(0.847572 0.0134207 0)
(0.849983 0.0165836 0)
(0.851912 0.019735 0)
(0.853345 0.0227908 0)
(0.854438 0.0256479 0)
(0.855176 0.0283071 0)
(0.855753 0.0307019 0)
(0.856079 0.0329282 0)
(0.856339 0.0350348 0)
(0.856291 0.0371056 0)
(0.856073 0.0392196 0)
(0.855336 0.0412747 0)
(0.854362 0.0431037 0)
(0.852785 0.0443927 0)
(0.852774 0.0443912 0)
(0.854361 0.0431018 0)
(0.855334 0.0412729 0)
(0.856072 0.0392181 0)
(0.856287 0.0371042 0)
(0.856334 0.0350345 0)
(0.856074 0.0329285 0)
(0.855746 0.0307028 0)
(0.855166 0.0283094 0)
(0.854423 0.0256534 0)
(0.853324 0.0228023 0)
(0.85188 0.0197568 0)
(0.849939 0.0166237 0)
(0.847506 0.0134895 0)
(0.844545 0.0105328 0)
(0.841048 0.00794406 0)
(0.83653 0.00600621 0)
(0.829663 0.00498649 0)
(0.818833 0.0049639 0)
(0.802431 0.00575077 0)
(0.779829 0.00689173 0)
(0.75257 0.00804628 0)
(0.722541 0.00869177 0)
(0.691796 0.00822043 0)
(0.662905 0.00668506 0)
(0.637953 0.00432206 0)
(0.617845 0.000738917 0)
(0.602428 -0.0043852 0)
(0.591147 -0.0114251 0)
(0.583163 -0.0198208 0)
(0.576536 -0.027947 0)
(0.569109 -0.0324614 0)
(0.563001 -0.0313399 0)
(0.557831 -0.0300404 0)
(0.554117 -0.0265391 0)
(0.550875 -0.024937 0)
(0.548002 -0.0236251 0)
(0.545044 -0.0226222 0)
(0.542104 -0.021473 0)
(0.539144 -0.0204532 0)
(0.536384 -0.0191771 0)
(0.533675 -0.0181044 0)
(0.531005 -0.0169816 0)
(0.528381 -0.0158979 0)
(0.525637 -0.014902 0)
(0.522849 -0.0137568 0)
(0.520037 -0.0125801 0)
(0.517519 -0.0111485 0)
(0.514834 -0.0100868 0)
(0.51216 -0.00871589 0)
(0.509709 -0.00723677 0)
(0.507256 -0.00597069 0)
(0.504455 -0.00471223 0)
(0.50162 -0.0028368 0)
(0.500171 -0.000427461 0)
(0.499061 0.00105053 0)
(0.497598 0.00184342 0)
(0.495349 0.00283207 0)
(0.492512 0.00427718 0)
(0.490518 0.00656211 0)
(0.488962 0.00838391 0)
(0.48702 0.00983161 0)
(0.485479 0.012156 0)
(0.484933 0.0144101 0)
(0.484155 0.0161441 0)
(0.483462 0.0181154 0)
(0.48334 0.0201822 0)
(0.483741 0.0219812 0)
(0.483753 0.0238393 0)
(0.483969 0.0257555 0)
(0.484707 0.0275521 0)
(0.485333 0.029486 0)
(0.486261 0.0315102 0)
(0.487807 0.0333301 0)
(0.489239 0.0352287 0)
(0.490795 0.0372146 0)
(0.492797 0.0390766 0)
(0.494778 0.0411426 0)
(0.49727 0.0430916 0)
(0.499993 0.0448577 0)
(0.502545 0.0467747 0)
(0.505255 0.0487637 0)
(0.508214 0.0509274 0)
(0.511703 0.0530966 0)
(0.515666 0.0550113 0)
(0.519537 0.0570305 0)
(0.523654 0.0589921 0)
(0.527875 0.0609216 0)
(0.532077 0.0630152 0)
(0.536545 0.0653425 0)
(0.541644 0.067818 0)
(0.547529 0.0700038 0)
(0.553424 0.0721417 0)
(0.559533 0.0741838 0)
(0.565914 0.0761747 0)
(0.572667 0.0780301 0)
(0.579682 0.0797402 0)
(0.586705 0.0814237 0)
(0.594103 0.0830834 0)
(0.601845 0.0847162 0)
(0.609905 0.0861067 0)
(0.617427 0.08761 0)
(0.62471 0.0895963 0)
(0.635718 0.0920939 0)
(0.648708 0.0902251 0)
(0.655578 0.0879091 0)
(0.660463 0.0890369 0)
(0.66828 0.090463 0)
(0.679615 0.0900264 0)
(0.689461 0.0895714 0)
(0.699146 0.0880898 0)
(0.708346 0.086406 0)
(0.717333 0.0843271 0)
(0.727034 0.0822027 0)
(0.736906 0.078491 0)
(0.746032 0.0746999 0)
(0.754502 0.0702224 0)
(0.763842 0.0663201 0)
(0.771606 0.0600941 0)
(0.779477 0.0543739 0)
(0.785209 0.0469264 0)
(0.792784 0.0407242 0)
(0.79693 0.0314704 0)
(0.803114 0.0244231 0)
(0.804904 0.0140393 0)
(0.807991 0.00785598 0)
(0.810601 -0.00104347 0)
(0.810093 -0.0081985 0)
(0.812577 -0.0137033 0)
(0.813146 -0.0221137 0)
(0.812399 -0.0274301 0)
(0.812726 -0.033962 0)
(0.81184 -0.0382401 0)
(0.812704 -0.0433736 0)
(0.812619 -0.0481208 0)
(0.812281 -0.0535351 0)
(0.811191 -0.057713 0)
(0.810964 -0.0620594 0)
(0.810315 -0.0658217 0)
(0.810398 -0.0697462 0)
(0.810256 -0.0739081 0)
(0.809899 -0.0784306 0)
(0.808739 -0.0822594 0)
(0.807924 -0.0859857 0)
(0.807226 -0.0898985 0)
(0.806356 -0.0938832 0)
(0.805581 -0.0981376 0)
(0.804409 -0.102781 0)
(0.802834 -0.107634 0)
(0.800813 -0.111924 0)
(0.798587 -0.116573 0)
(0.796231 -0.121401 0)
(0.793784 -0.126163 0)
(0.790695 -0.131173 0)
(0.787208 -0.136159 0)
(0.783472 -0.141309 0)
(0.779188 -0.146509 0)
(0.774484 -0.151892 0)
(0.768984 -0.157094 0)
(0.763001 -0.161678 0)
(0.757371 -0.166444 0)
(0.751438 -0.172268 0)
(0.744211 -0.178595 0)
(0.735941 -0.184932 0)
(0.726751 -0.191484 0)
(0.716191 -0.197994 0)
(0.704335 -0.204032 0)
(0.691602 -0.209611 0)
(0.678093 -0.21581 0)
(0.662376 -0.223073 0)
(0.643379 -0.229502 0)
(0.621592 -0.234082 0)
(0.597623 -0.236732 0)
(0.570971 -0.239207 0)
(0.538468 -0.240314 0)
(0.499078 -0.236008 0)
(0.45319 -0.229239 0)
(0.39812 -0.206007 0)
(0.336466 -0.163396 0)
(0.278378 -0.101927 0)
(0.207381 -0.0203557 0)
(0.159767 0.0932644 0)
(0.129117 0.238494 0)
(0.140553 0.396693 0)
(0.218812 0.542052 0)
(0.329731 0.641616 0)
(0.456043 0.669292 0)
(0.570117 0.66192 0)
(0.642808 0.604234 0)
(0.684677 0.567792 0)
(0.722412 0.530373 0)
(0.753573 0.487741 0)
(0.774921 0.444115 0)
(0.789114 0.406944 0)
(0.798327 0.371002 0)
(0.80444 0.342569 0)
(0.809339 0.319233 0)
(0.812576 0.298364 0)
(0.815294 0.280893 0)
(0.817154 0.264717 0)
(0.818905 0.252004 0)
(0.820252 0.241069 0)
(0.821103 0.230428 0)
(0.821504 0.220297 0)
(0.821442 0.210517 0)
(0.821191 0.201909 0)
(0.820779 0.194186 0)
(0.820126 0.186683 0)
(0.819259 0.179529 0)
(0.818185 0.1727 0)
(0.816875 0.165669 0)
(0.815377 0.158858 0)
(0.813711 0.152293 0)
(0.811838 0.145746 0)
(0.809808 0.139655 0)
(0.807687 0.134171 0)
(0.805497 0.129106 0)
(0.80324 0.123734 0)
(0.800933 0.118491 0)
(0.798531 0.113067 0)
(0.795927 0.106525 0)
(0.793186 0.100583 0)
(0.790434 0.0960288 0)
(0.787616 0.0918291 0)
(0.784743 0.0879809 0)
(0.781817 0.0845202 0)
(0.778861 0.0810183 0)
(0.775873 0.0775931 0)
(0.772891 0.0742659 0)
(0.769877 0.0711787 0)
(0.766955 0.067634 0)
(0.763961 0.0622685 0)
(0.76087 0.057534 0)
(0.757721 0.0525573 0)
(0.754479 0.0482207 0)
(0.751213 0.0447662 0)
(0.748032 0.04166 0)
(0.744793 0.0383881 0)
(0.74168 0.0354261 0)
(0.738472 0.0319551 0)
(0.735419 0.028895 0)
(0.732193 0.0252008 0)
(0.729178 0.0220728 0)
(0.725921 0.0180313 0)
(0.722909 0.0149322 0)
(0.719578 0.0111509 0)
(0.716749 0.00856052 0)
(0.713416 0.00328788 0)
(0.710213 0.0018973 0)
(0.707753 -0.000741273 0)
(0.704642 -0.0069301 0)
(0.701703 -0.0093004 0)
(0.698761 -0.0131546 0)
(0.693623 -0.0139332 0)
(0.669703 -0.01037 0)
(0.625289 -0.0100756 0)
(0.588758 -0.0191937 0)
(0.574578 -0.026987 0)
(0.570925 -0.0319639 0)
(0.569804 -0.0352653 0)
(0.568168 -0.0379446 0)
(0.565498 -0.0401774 0)
(0.562177 -0.0425066 0)
(0.557748 -0.0446608 0)
(0.552593 -0.0467605 0)
(0.546692 -0.048497 0)
(0.541225 -0.0502882 0)
(0.532738 -0.052259 0)
(0.519808 -0.0542421 0)
(0.508817 -0.0527733 0)
(0.505403 -0.0520797 0)
(0.500347 -0.0540599 0)
(0.488343 -0.0561966 0)
(0.474972 -0.0554307 0)
(0.467733 -0.0536886 0)
(0.462245 -0.0540119 0)
(0.453195 -0.0552895 0)
(0.44148 -0.0554377 0)
(0.430402 -0.0545184 0)
(0.419897 -0.0539391 0)
(0.409055 -0.0533587 0)
(0.397727 -0.0526689 0)
(0.386032 -0.0518217 0)
(0.373896 -0.0508561 0)
(0.361334 -0.0496834 0)
(0.34882 -0.0481907 0)
(0.336323 -0.0467203 0)
(0.323651 -0.045266 0)
(0.310766 -0.043759 0)
(0.297753 -0.0421761 0)
(0.284728 -0.0405204 0)
(0.271727 -0.0388306 0)
(0.258826 -0.0370846 0)
(0.24612 -0.0352982 0)
(0.233639 -0.033528 0)
(0.2214 -0.0317913 0)
(0.209449 -0.0300504 0)
(0.197801 -0.0282987 0)
(0.186502 -0.0265109 0)
(0.175601 -0.024762 0)
(0.16512 -0.0231157 0)
(0.155017 -0.0215956 0)
(0.145208 -0.0201049 0)
(0.135661 -0.0186257 0)
(0.126483 -0.0171721 0)
(0.117807 -0.0158309 0)
(0.10969 -0.0146873 0)
(0.10214 -0.0137391 0)
(0.0951346 -0.0129341 0)
(0.0886691 -0.0122415 0)
(0.0827281 -0.0116561 0)
(0.0773196 -0.0111513 0)
(0.0724728 -0.0107176 0)
(0.0681704 -0.0103414 0)
(0.0643657 -0.0100146 0)
(0.0609783 -0.00969858 0)
(0.0579419 -0.00939388 0)
(0.0551931 -0.00908283 0)
(0.0527112 -0.00876575 0)
(0.0504884 -0.00846102 0)
(0.0485229 -0.008186 0)
(0.0467816 -0.00793005 0)
(0.0452285 -0.00771199 0)
(0.0438535 -0.00760604 0)
(0.0426796 -0.00774144 0)
(0.0417818 -0.00828358 0)
(0.0414199 -0.00938801 0)
(0.04155 -0.0112911 0)
(0.0420303 -0.0144105 0)
(0.0430079 -0.019211 0)
(0.0447081 -0.0262101 0)
(0.0473798 -0.0357352 0)
(0.0510709 -0.0468662 0)
(0.0538358 -0.0565302 0)
(0.0551004 -0.0603457 0)
(0.0559886 -0.0583429 0)
(0.0628204 -0.0462042 0)
(0.084905 -0.0289757 0)
(0.121098 -0.0110138 0)
(0.16764 -6.76648e-05 0)
(0.222959 0.00673394 0)
(0.292392 0.0106902 0)
(0.373677 0.0112628 0)
(0.459597 0.0103225 0)
(0.542416 0.0100274 0)
(0.619148 0.00901104 0)
(0.68582 0.0076471 0)
(0.739766 0.00635214 0)
(0.78082 0.00519497 0)
(0.808891 0.00448713 0)
(0.825945 0.00460612 0)
(0.835558 0.00570516 0)
(0.840981 0.00772626 0)
(0.84464 0.0103911 0)
(0.847588 0.0134031 0)
(0.849995 0.0165737 0)
(0.85192 0.0197293 0)
(0.853351 0.0227881 0)
(0.854442 0.0256465 0)
(0.855178 0.0283065 0)
(0.855754 0.0307016 0)
(0.85608 0.0329288 0)
(0.856339 0.0350355 0)
(0.856292 0.0371051 0)
(0.856073 0.0392202 0)
(0.855336 0.0412753 0)
(0.854362 0.0431042 0)
(0.852781 0.0443925 0)
(0.852775 0.0443909 0)
(0.854361 0.0431014 0)
(0.855334 0.0412725 0)
(0.856072 0.0392178 0)
(0.856286 0.0371037 0)
(0.856334 0.0350348 0)
(0.856073 0.0329284 0)
(0.855744 0.0307028 0)
(0.855164 0.02831 0)
(0.85442 0.0256549 0)
(0.853318 0.0228052 0)
(0.851873 0.0197624 0)
(0.849927 0.0166324 0)
(0.84749 0.0135059 0)
(0.844523 0.0105599 0)
(0.841043 0.00798527 0)
(0.836642 0.00606443 0)
(0.830123 0.00506378 0)
(0.820064 0.00505912 0)
(0.805124 0.0058526 0)
(0.784763 0.00700126 0)
(0.760498 0.00810323 0)
(0.734207 0.00867754 0)
(0.707644 0.00807908 0)
(0.683028 0.00624345 0)
(0.662169 0.00342976 0)
(0.645664 -0.000728141 0)
(0.632979 -0.00629803 0)
(0.623152 -0.0132206 0)
(0.615029 -0.020355 0)
(0.607083 -0.0260216 0)
(0.598734 -0.0286781 0)
(0.591688 -0.0278464 0)
(0.586024 -0.0277097 0)
(0.581708 -0.0254604 0)
(0.578231 -0.0240454 0)
(0.575173 -0.0228986 0)
(0.572177 -0.0219797 0)
(0.569332 -0.0208729 0)
(0.566477 -0.0198862 0)
(0.563782 -0.0187045 0)
(0.561113 -0.0176943 0)
(0.558503 -0.0166019 0)
(0.555913 -0.015572 0)
(0.553246 -0.0145733 0)
(0.550603 -0.0133824 0)
(0.54791 -0.0122253 0)
(0.545449 -0.010836 0)
(0.542836 -0.00978596 0)
(0.540299 -0.00834382 0)
(0.53791 -0.00690914 0)
(0.535508 -0.00566241 0)
(0.532921 -0.00433928 0)
(0.530396 -0.00251764 0)
(0.52886 -0.000331987 0)
(0.527556 0.00117361 0)
(0.526035 0.00217672 0)
(0.523909 0.00319059 0)
(0.521373 0.00476643 0)
(0.519503 0.00695817 0)
(0.518004 0.00883176 0)
(0.516219 0.0102934 0)
(0.514813 0.012563 0)
(0.51427 0.0148439 0)
(0.513522 0.0167408 0)
(0.513019 0.0187884 0)
(0.512927 0.0208994 0)
(0.513271 0.0228367 0)
(0.513378 0.0247174 0)
(0.513713 0.0267911 0)
(0.51445 0.0288238 0)
(0.515152 0.0309287 0)
(0.516187 0.0330904 0)
(0.517728 0.0350674 0)
(0.519197 0.037129 0)
(0.520839 0.0392592 0)
(0.522881 0.0412775 0)
(0.524921 0.043511 0)
(0.527461 0.0455888 0)
(0.5302 0.047457 0)
(0.532801 0.0495032 0)
(0.535575 0.0516318 0)
(0.53859 0.0539661 0)
(0.542112 0.056271 0)
(0.546081 0.058278 0)
(0.549972 0.0604548 0)
(0.554118 0.0624932 0)
(0.558375 0.0644683 0)
(0.562636 0.0666728 0)
(0.567179 0.0691422 0)
(0.572342 0.0716723 0)
(0.578259 0.0737206 0)
(0.584175 0.0758409 0)
(0.590295 0.0779095 0)
(0.596666 0.0800251 0)
(0.603369 0.0820657 0)
(0.610321 0.0837846 0)
(0.617283 0.0856331 0)
(0.624568 0.0873233 0)
(0.632129 0.0890878 0)
(0.639983 0.0903555 0)
(0.647549 0.0916823 0)
(0.655058 0.0939605 0)
(0.665732 0.0969409 0)
(0.677947 0.094948 0)
(0.684861 0.0913351 0)
(0.690078 0.0922473 0)
(0.698015 0.0947686 0)
(0.70883 0.0942301 0)
(0.71842 0.0938334 0)
(0.727878 0.0922908 0)
(0.736924 0.0904986 0)
(0.745769 0.0882928 0)
(0.755338 0.0861929 0)
(0.765002 0.0822021 0)
(0.773901 0.0781366 0)
(0.782067 0.0733719 0)
(0.791195 0.0686802 0)
(0.79831 0.0617861 0)
(0.805614 0.0556885 0)
(0.810849 0.0480723 0)
(0.817601 0.0416224 0)
(0.82132 0.0322012 0)
(0.826676 0.0248625 0)
(0.828184 0.014416 0)
(0.830734 0.00790626 0)
(0.832671 -0.00108039 0)
(0.832176 -0.00850417 0)
(0.833844 -0.0141343 0)
(0.833922 -0.0225641 0)
(0.832842 -0.0280861 0)
(0.832378 -0.0346593 0)
(0.831091 -0.0391489 0)
(0.831167 -0.0443171 0)
(0.830784 -0.0491245 0)
(0.830064 -0.0544816 0)
(0.828779 -0.0586163 0)
(0.828025 -0.0627975 0)
(0.827011 -0.0664785 0)
(0.826565 -0.0703386 0)
(0.825985 -0.0744883 0)
(0.825138 -0.0790447 0)