/*--------------------------------*- C++ -*----------------------------------*\
| =========                 |                                                 |
| \\      /  F ield         | OpenFOAM: The Open Source CFD Toolbox           |
|  \\    /   O peration     | Version:  v2006                                 |
|   \\  /    A nd           | Website:  www.openfoam.com                      |
|    \\/     M anipulation  |                                                 |
\*---------------------------------------------------------------------------*/
FoamFile
{
    version     2.0;
    format      ascii;
    class       volScalarField;
    location    "185";
    object      T;
}
// * * * * * * * * * * * * * * * * * * * * * * * * * * * * * * * * * * * * * //

dimensions      [0 0 0 1 0 0 0];


internalField   nonuniform List<scalar> 
93840
(
0.99451
0.994471
0.99437
0.994451
0.994665
0.994977
0.995359
0.99579
0.996276
0.99687
0.997594
0.998503
0.99964
1.00101
1.00264
1.0046
1.00692
1.01042
1.01511
1.01978
1.0237
1.02629
1.0284
1.03069
1.03252
1.03473
1.03736
1.03933
1.0409
1.04198
1.04395
1.05021
1.03734
1.03902
1.03751
1.03791
1.03802
1.03852
1.03905
1.03953
1.03991
1.04031
1.04069
1.04104
1.04147
1.04188
1.04225
1.04258
1.04303
1.04344
1.04372
1.04414
1.04469
1.04508
1.0449
1.04492
1.04511
1.04555
1.04602
1.04622
1.04641
1.04678
1.04687
1.04685
1.04698
1.04716
1.04727
1.04727
1.0475
1.0475
1.0475
1.04751
1.04736
1.04724
1.04714
1.04691
1.04671
1.04647
1.04618
1.04604
1.04587
1.04569
1.04545
1.04505
1.04477
1.04438
1.04389
1.04344
1.04297
1.04247
1.04179
1.04114
1.04035
1.03953
1.03876
1.03786
1.03686
1.0358
1.03473
1.03347
1.0322
1.03101
1.02976
1.02692
1.02518
1.02466
1.02336
1.02059
1.01843
1.01603
1.01365
1.01107
1.00842
1.00553
1.00297
1.00066
0.999542
0.998203
0.996431
0.993667
0.992449
0.989525
0.988826
0.986536
0.987422
0.98662
0.987188
0.989082
0.988936
0.990423
0.991796
0.993913
0.99527
0.996164
0.996758
0.997574
0.998291
0.998906
0.999221
0.999531
0.999815
1.00075
1.00212
1.0031
1.00407
1.00494
1.00577
1.00667
1.00771
1.00915
1.01027
1.0114
1.01278
1.01423
1.01565
1.01715
1.01864
1.02024
1.02218
1.02409
1.02559
1.02721
1.02919
1.03128
1.03352
1.03605
1.03884
1.0415
1.04402
1.0472
1.05086
1.05486
1.05849
1.06213
1.06749
1.07265
1.07909
1.0873
1.09426
1.10013
1.10772
1.1119
1.10691
1.10086
1.05921
1.04736
0.998103
0.973408
0.957818
0.95474
0.934103
0.916158
0.904973
0.897645
0.890016
0.88902
0.889455
0.888629
0.887671
0.888134
0.89357
0.89545
0.895415
0.897761
0.901492
0.90392
0.90649
0.909446
0.912853
0.915335
0.917073
0.919735
0.921799
0.922758
0.924614
0.926242
0.929042
0.930451
0.930518
0.929269
0.92785
0.92838
0.929839
0.931864
0.934615
0.936135
0.936443
0.937683
0.939399
0.940827
0.941754
0.941434
0.940773
0.939113
0.937852
0.937342
0.93686
0.936144
0.936376
0.937016
0.939701
0.941947
0.942487
0.941816
0.941142
0.94036
0.940053
0.937706
0.939179
0.937467
0.934146
0.935753
0.935166
0.934918
0.936178
0.957044
0.998546
1.01483
1.01905
1.01911
1.01816
1.01778
1.01796
1.0186
1.01986
1.0218
1.02253
1.02335
1.02456
1.02687
1.02731
1.02716
1.02769
1.0297
1.03118
1.0321
1.03315
1.03458
1.03574
1.03681
1.03857
1.03978
1.04073
1.04171
1.04262
1.04341
1.04395
1.04442
1.04506
1.04582
1.04651
1.04706
1.04764
1.04828
1.04878
1.04904
1.04917
1.04927
1.04943
1.04973
1.0502
1.05072
1.0512
1.0516
1.05189
1.05209
1.05223
1.05241
1.05269
1.05308
1.05346
1.05369
1.05379
1.05393
1.05415
1.05447
1.05475
1.05491
1.05506
1.05526
1.0555
1.05571
1.05596
1.05617
1.05624
1.05621
1.05607
1.05598
1.05596
1.05588
1.05599
1.0564
1.05687
1.0567
1.05716
1.04364
1.04893
1.05141
1.05038
1.04826
1.04565
1.04296
1.03929
1.03523
1.03244
1.02964
1.02672
1.0241
1.02056
1.01561
1.01071
1.00695
1.00461
1.00263
1.001
0.999635
0.998498
0.99759
0.996869
0.996275
0.995789
0.995358
0.994977
0.994665
0.994451
0.994369
0.994471
0.994509
0.99451
0.994472
0.99437
0.994451
0.994665
0.994978
0.995359
0.995791
0.996278
0.996872
0.997599
0.998509
0.999644
1.00101
1.00263
1.00457
1.00699
1.01026
1.01469
1.01882
1.02263
1.02532
1.02702
1.02893
1.03087
1.03198
1.03347
1.03457
1.03518
1.03554
1.03642
1.03881
1.0364
1.03737
1.03716
1.03746
1.0378
1.03826
1.03875
1.03923
1.03966
1.04006
1.04049
1.04088
1.0413
1.0417
1.04211
1.04245
1.04282
1.04322
1.04356
1.04395
1.04443
1.04484
1.04491
1.04498
1.0452
1.04551
1.04589
1.04609
1.04628
1.04665
1.04685
1.04692
1.04708
1.04719
1.04721
1.04724
1.04731
1.04736
1.04739
1.04743
1.04734
1.04726
1.04718
1.047
1.04682
1.04659
1.04631
1.0461
1.04589
1.04568
1.04543
1.04506
1.0447
1.04426
1.04375
1.04327
1.04277
1.04221
1.04151
1.04084
1.04011
1.03933
1.03846
1.03745
1.03651
1.03553
1.03446
1.03319
1.0319
1.03068
1.0293
1.02653
1.0245
1.02384
1.02261
1.02013
1.01784
1.01519
1.01261
1.01007
1.00742
1.00443
1.00175
0.999124
0.996769
0.993214
0.99038
0.987197
0.985642
0.982985
0.982516
0.980626
0.98118
0.980096
0.980771
0.982912
0.983137
0.98483
0.985819
0.987766
0.989322
0.990561
0.99155
0.992896
0.993949
0.995507
0.996707
0.997536
0.998384
0.999595
1.00084
1.00183
1.00286
1.00381
1.00471
1.00565
1.00681
1.00808
1.00926
1.01062
1.01203
1.01351
1.01503
1.01661
1.01821
1.0199
1.02181
1.02372
1.02544
1.02722
1.02923
1.03138
1.03371
1.03629
1.03907
1.04188
1.04472
1.04794
1.05157
1.05556
1.05961
1.0639
1.06897
1.07426
1.07971
1.08637
1.09273
1.09939
1.10518
1.10793
1.10141
1.09371
1.06952
1.04986
1.01649
0.989355
0.967359
0.955948
0.93814
0.920116
0.906606
0.896724
0.888213
0.885028
0.881694
0.879029
0.88039
0.882637
0.882506
0.881512
0.883861
0.888623
0.889844
0.890292
0.89349
0.897164
0.89933
0.900755
0.903148
0.905561
0.906742
0.907937
0.90979
0.911177
0.913679
0.914216
0.913934
0.913685
0.913226
0.912989
0.913366
0.915431
0.917957
0.918767
0.919463
0.921326
0.922458
0.923395
0.924817
0.92471
0.924024
0.922576
0.92158
0.920651
0.919548
0.919105
0.920219
0.921171
0.922664
0.923715
0.924039
0.923108
0.92293
0.922945
0.923035
0.920098
0.921085
0.920337
0.917902
0.919727
0.918238
0.91751
0.91933
0.941074
0.991631
1.01293
1.01747
1.01769
1.01715
1.01713
1.01761
1.01859
1.01969
1.02093
1.02222
1.02348
1.02454
1.02635
1.02707
1.02732
1.02815
1.03006
1.03152
1.03236
1.03342
1.03504
1.03674
1.03775
1.03853
1.03945
1.04046
1.04142
1.04232
1.04315
1.0439
1.04461
1.04527
1.04592
1.04666
1.04745
1.04811
1.04856
1.04886
1.04912
1.04939
1.04965
1.04988
1.05009
1.05034
1.05064
1.05097
1.05132
1.05164
1.05194
1.05227
1.05261
1.05292
1.05318
1.05341
1.05366
1.05397
1.0543
1.05454
1.05472
1.05489
1.05507
1.05526
1.05539
1.05552
1.05565
1.05582
1.05599
1.05614
1.05632
1.05644
1.05661
1.05685
1.05701
1.0571
1.05709
1.0569
1.05633
1.0561
1.05539
1.05519
1.05527
1.055
1.05378
1.0519
1.04923
1.04528
1.03998
1.035
1.03095
1.02731
1.02415
1.0211
1.01623
1.01114
1.00705
1.00462
1.00262
1.001
0.999627
0.998493
0.997586
0.996867
0.996274
0.995788
0.995357
0.994976
0.994664
0.994451
0.994369
0.994471
0.994509
0.99451
0.994472
0.99437
0.994452
0.994665
0.994979
0.99536
0.995792
0.996279
0.996874
0.997603
0.998515
0.999647
1.00101
1.00262
1.00453
1.00699
1.01026
1.01441
1.01814
1.02158
1.02427
1.02599
1.02741
1.0292
1.03037
1.03112
1.03172
1.03188
1.03235
1.03341
1.03474
1.03486
1.03599
1.03666
1.03703
1.03749
1.03798
1.03847
1.03893
1.03937
1.03978
1.04023
1.04065
1.0411
1.04152
1.04195
1.0423
1.04265
1.04302
1.04334
1.04367
1.04409
1.04454
1.04475
1.04489
1.04514
1.04543
1.04576
1.04595
1.04609
1.04644
1.04672
1.04686
1.04704
1.04712
1.04712
1.04712
1.04713
1.04717
1.04721
1.04725
1.04721
1.04715
1.04708
1.04692
1.04674
1.0465
1.0462
1.04596
1.04572
1.04549
1.04523
1.04488
1.04448
1.04399
1.04344
1.04294
1.04242
1.04181
1.04104
1.04027
1.03955
1.03879
1.03784
1.0368
1.03592
1.03494
1.03382
1.03251
1.0312
1.02996
1.02851
1.02573
1.02329
1.02245
1.02145
1.01892
1.01634
1.01337
1.01071
1.00819
1.00546
1.00221
0.999306
0.996166
0.992766
0.988529
0.985757
0.982506
0.980092
0.976927
0.976578
0.975547
0.97662
0.975616
0.975472
0.977126
0.977709
0.980193
0.98176
0.983195
0.984388
0.985863
0.986922
0.98885
0.990352
0.991585
0.993464
0.995005
0.996128
0.997144
0.998323
0.999451
1.00071
1.0019
1.00298
1.00399
1.00508
1.00621
1.00739
1.00884
1.01037
1.01197
1.01364
1.01538
1.01716
1.01904
1.02103
1.02296
1.02477
1.02666
1.0287
1.03088
1.03326
1.03592
1.03876
1.04161
1.04455
1.04785
1.05155
1.05555
1.0597
1.06421
1.0693
1.07466
1.0811
1.08755
1.09317
1.09767
1.10209
1.10397
1.10094
1.09485
1.07507
1.05336
1.02369
0.996469
0.973921
0.958434
0.940707
0.922769
0.90627
0.895794
0.887346
0.880442
0.875378
0.874472
0.876805
0.875495
0.872078
0.873093
0.878327
0.881146
0.879106
0.880091
0.88485
0.887658
0.887426
0.8895
0.892894
0.89364
0.89451
0.896559
0.897124
0.897972
0.89986
0.89984
0.900628
0.902326
0.90119
0.898726
0.899234
0.902401
0.903378
0.904144
0.906317
0.907241
0.906806
0.90868
0.910939
0.910035
0.909695
0.908483
0.906329
0.904262
0.904125
0.905871
0.907842
0.906762
0.906438
0.907321
0.90796
0.907904
0.909166
0.908343
0.906735
0.903038
0.90564
0.907325
0.90482
0.90436
0.902351
0.903146
0.906277
0.926689
0.981082
1.00813
1.01424
1.01467
1.01442
1.01483
1.01576
1.01724
1.01863
1.01943
1.02143
1.02249
1.02355
1.02531
1.0262
1.0266
1.02759
1.02957
1.03116
1.03191
1.03292
1.03467
1.03678
1.03802
1.03836
1.03909
1.04015
1.04114
1.04205
1.04296
1.04383
1.04464
1.04534
1.04597
1.04671
1.04759
1.04829
1.04864
1.04886
1.04914
1.04949
1.04979
1.04999
1.05013
1.05024
1.05037
1.05062
1.05096
1.05133
1.05175
1.05223
1.05267
1.053
1.0532
1.05336
1.05361
1.05401
1.05445
1.05476
1.05489
1.05497
1.05514
1.05537
1.05553
1.05564
1.05571
1.05576
1.05583
1.05598
1.05625
1.05658
1.05695
1.05729
1.05751
1.05761
1.0575
1.05721
1.0571
1.0573
1.05746
1.05811
1.05816
1.05819
1.0576
1.0561
1.05413
1.05086
1.04539
1.03869
1.03295
1.0286
1.0247
1.02142
1.01686
1.01161
1.00719
1.0046
1.00261
1.00099
0.999619
0.998488
0.997583
0.996865
0.996273
0.995787
0.995356
0.994976
0.994664
0.99445
0.994368
0.994471
0.994509
0.99451
0.994472
0.994369
0.994452
0.994666
0.994979
0.995361
0.995793
0.99628
0.996876
0.997605
0.99852
0.999648
1.00101
1.00259
1.00448
1.00694
1.0102
1.01431
1.0179
1.02108
1.02369
1.02565
1.02659
1.02747
1.0287
1.02937
1.03003
1.03047
1.03124
1.03211
1.03326
1.03416
1.0352
1.03597
1.03653
1.03707
1.0376
1.03809
1.03856
1.039
1.03942
1.03986
1.04029
1.04075
1.04121
1.04168
1.04206
1.04244
1.04281
1.04311
1.0434
1.04375
1.04416
1.04442
1.04461
1.04489
1.0452
1.04553
1.04576
1.04592
1.04621
1.04646
1.0466
1.04677
1.04688
1.04691
1.04694
1.04698
1.047
1.04702
1.04701
1.04693
1.04684
1.04673
1.04655
1.04634
1.04609
1.04581
1.04556
1.04532
1.04507
1.04479
1.04442
1.04402
1.04352
1.04296
1.04242
1.04188
1.04129
1.0405
1.03965
1.03885
1.038
1.03702
1.03594
1.03485
1.03371
1.03248
1.03109
1.02971
1.0284
1.02692
1.02429
1.02177
1.02073
1.01947
1.01673
1.01411
1.01102
1.00813
1.00539
1.00248
0.99893
0.995653
0.992021
0.988407
0.984394
0.981929
0.979883
0.977697
0.973809
0.972388
0.971148
0.972946
0.973289
0.973273
0.973955
0.973831
0.976239
0.978514
0.980696
0.981905
0.983246
0.984063
0.985765
0.988073
0.989361
0.990598
0.992229
0.993732
0.995044
0.9963
0.997374
0.998483
0.999712
1.00098
1.00232
1.00373
1.00509
1.00645
1.00776
1.00915
1.01069
1.01234
1.01408
1.01595
1.01798
1.02012
1.02221
1.02419
1.02618
1.02831
1.03058
1.033
1.03563
1.03851
1.04146
1.04452
1.04785
1.05159
1.05562
1.05985
1.0644
1.06942
1.07477
1.08089
1.0866
1.09169
1.09567
1.09941
1.10076
1.09767
1.09132
1.07408
1.05432
1.0275
1.00206
0.979676
0.962334
0.944715
0.925698
0.908602
0.899135
0.888224
0.878572
0.874833
0.8751
0.873786
0.86898
0.867525
0.871869
0.875944
0.874638
0.87286
0.876404
0.88063
0.880269
0.880437
0.884357
0.886224
0.885559
0.887583
0.888684
0.888167
0.889586
0.891079
0.891871
0.894109
0.894429
0.891123
0.88905
0.891644
0.893747
0.89367
0.895738
0.89695
0.895807
0.89632
0.899879
0.900419
0.898068
0.89793
0.896262
0.893681
0.893387
0.895993
0.898203
0.897358
0.894896
0.895719
0.897909
0.89902
0.898934
0.898452
0.895495
0.893902
0.892348
0.897204
0.898096
0.893133
0.892266
0.892533
0.89509
0.89573
0.913472
0.967404
0.999539
1.00904
1.01081
1.01103
1.01168
1.01284
1.01443
1.01602
1.01751
1.01942
1.02062
1.02223
1.02437
1.02505
1.02528
1.02634
1.0284
1.03006
1.03088
1.03197
1.03375
1.0358
1.03733
1.03818
1.03907
1.04014
1.04118
1.04215
1.04311
1.04396
1.04473
1.04536
1.04602
1.04678
1.04759
1.04823
1.04862
1.04896
1.04927
1.04954
1.04978
1.04997
1.05014
1.05029
1.05046
1.05067
1.05094
1.05127
1.05168
1.05217
1.05263
1.05299
1.05325
1.05347
1.0537
1.05404
1.05444
1.05476
1.05492
1.05501
1.05519
1.05544
1.05566
1.05582
1.05588
1.05591
1.05596
1.05604
1.05626
1.05656
1.0569
1.05721
1.05745
1.05761
1.05767
1.05753
1.05757
1.05782
1.05849
1.05931
1.05971
1.05993
1.05986
1.05898
1.05733
1.05474
1.05035
1.04322
1.03583
1.03043
1.02579
1.0217
1.01733
1.01201
1.00735
1.00455
1.00257
1.00098
0.99961
0.998483
0.99758
0.996863
0.996272
0.995786
0.995356
0.994975
0.994663
0.99445
0.994368
0.994471
0.994509
0.99451
0.994472
0.99437
0.994452
0.994666
0.99498
0.995361
0.995794
0.996282
0.996877
0.997608
0.998525
0.999649
1.00102
1.00257
1.0044
1.00683
1.00999
1.01406
1.01815
1.02113
1.02356
1.02565
1.02631
1.02624
1.02703
1.02782
1.02872
1.02963
1.03057
1.03153
1.03264
1.03356
1.03453
1.03531
1.03595
1.03653
1.03709
1.0376
1.03809
1.03855
1.03897
1.03941
1.03984
1.0403
1.04076
1.04123
1.04165
1.04207
1.04246
1.04278
1.04307
1.04338
1.04373
1.04398
1.04416
1.04443
1.04475
1.04515
1.04545
1.04568
1.04593
1.0461
1.04619
1.04632
1.04647
1.04658
1.04666
1.04672
1.04672
1.04668
1.04659
1.04645
1.0463
1.04612
1.0459
1.04567
1.04541
1.04516
1.04495
1.04472
1.04448
1.04417
1.04371
1.04322
1.04265
1.04204
1.04147
1.04091
1.04033
1.03958
1.03876
1.03789
1.03688
1.03567
1.03428
1.03294
1.03166
1.03035
1.02888
1.02743
1.02604
1.02449
1.0216
1.01899
1.01801
1.01648
1.01366
1.01116
1.00812
1.00503
1.00195
0.998814
0.995026
0.99155
0.987879
0.984597
0.980751
0.978257
0.976734
0.975822
0.972968
0.970553
0.968047
0.969416
0.970351
0.971823
0.973198
0.972172
0.973348
0.975181
0.978049
0.979996
0.981343
0.982503
0.983673
0.985818
0.988129
0.989113
0.989965
0.991375
0.99304
0.994717
0.996117
0.99716
0.998094
0.999256
1.00065
1.00229
1.00398
1.00569
1.00718
1.00868
1.01023
1.01178
1.01342
1.0152
1.01716
1.01928
1.02143
1.02355
1.02566
1.0279
1.03031
1.03285
1.03555
1.03842
1.04139
1.04453
1.04796
1.05174
1.05576
1.05997
1.0645
1.06941
1.07467
1.08033
1.08533
1.08999
1.09392
1.09735
1.09831
1.09479
1.08826
1.07364
1.05579
1.03129
1.00746
0.985188
0.967256
0.94946
0.930072
0.914749
0.903826
0.889296
0.879083
0.877141
0.875301
0.871119
0.865858
0.867421
0.872579
0.872644
0.86964
0.870839
0.875418
0.876447
0.875059
0.87775
0.881278
0.880534
0.880739
0.883149
0.882422
0.882554
0.884834
0.886115
0.887824
0.888466
0.886627
0.88359
0.884335
0.887255
0.886248
0.887067
0.888989
0.88807
0.887307
0.890501
0.892606
0.891194
0.889128
0.888438
0.886505
0.885619
0.888777
0.891331
0.89
0.887432
0.886961
0.890364
0.891233
0.891017
0.889592
0.887258
0.884886
0.886144
0.887747
0.889842
0.888155
0.883027
0.884975
0.888016
0.887302
0.885431
0.902419
0.954178
0.987802
0.999843
1.00407
1.00558
1.00698
1.00855
1.01019
1.01185
1.01386
1.0157
1.01805
1.02049
1.02283
1.02341
1.0234
1.02449
1.02657
1.02827
1.02927
1.03058
1.03242
1.03402
1.03559
1.03726
1.03857
1.03974
1.04093
1.04209
1.04316
1.04399
1.04461
1.0452
1.0459
1.04667
1.04734
1.04793
1.04851
1.04906
1.04946
1.04966
1.04978
1.04993
1.05017
1.05046
1.05073
1.05098
1.05123
1.05152
1.05183
1.05218
1.05252
1.05285
1.05322
1.05357
1.05386
1.05409
1.05432
1.05458
1.05483
1.05503
1.05524
1.05547
1.05569
1.05587
1.05601
1.05613
1.05624
1.05631
1.05642
1.05653
1.05666
1.0568
1.057
1.05733
1.05773
1.05789
1.05804
1.05839
1.05923
1.05976
1.06034
1.06077
1.06078
1.06046
1.05966
1.05783
1.05463
1.04827
1.03934
1.03233
1.02723
1.02227
1.0177
1.01224
1.00752
1.00451
1.00253
1.00097
0.9996
0.99848
0.997577
0.996861
0.996271
0.995785
0.995355
0.994975
0.994663
0.99445
0.994367
0.994471
0.994509
0.99451
0.994473
0.99437
0.994453
0.994667
0.99498
0.995362
0.995795
0.996283
0.996879
0.99761
0.998528
0.99965
1.00102
1.00257
1.00434
1.0067
1.00968
1.01357
1.01794
1.02089
1.02311
1.02492
1.02614
1.02599
1.02607
1.02682
1.02779
1.02885
1.02985
1.03103
1.03194
1.03282
1.0338
1.0346
1.03528
1.03588
1.03646
1.03699
1.03751
1.03799
1.03844
1.03889
1.03931
1.03975
1.04017
1.04061
1.04102
1.04144
1.04185
1.0422
1.04254
1.04283
1.04316
1.04339
1.04358
1.04383
1.04415
1.04456
1.04493
1.04521
1.04546
1.04562
1.0457
1.0458
1.04595
1.04606
1.04614
1.04616
1.04613
1.04607
1.04596
1.04581
1.04564
1.04543
1.04517
1.04489
1.0446
1.04433
1.04409
1.04386
1.04361
1.0433
1.04281
1.04221
1.04152
1.04085
1.04024
1.03967
1.03905
1.03816
1.0372
1.03627
1.03516
1.03384
1.03241
1.03089
1.02944
1.02798
1.0264
1.02484
1.02335
1.02171
1.01883
1.01619
1.01508
1.01349
1.01047
1.00771
1.00464
1.00179
0.998859
0.995947
0.992563
0.989397
0.986057
0.983119
0.979202
0.975991
0.973461
0.972743
0.971604
0.970653
0.967481
0.967233
0.967249
0.969332
0.972107
0.972447
0.9726
0.973043
0.975446
0.977663
0.979363
0.981272
0.982954
0.984092
0.986499
0.988395
0.989408
0.990229
0.991529
0.993225
0.994954
0.996525
0.997814
0.998846
0.999916
1.0013
1.0029
1.00468
1.00641
1.00814
1.00994
1.01173
1.01351
1.01529
1.01715
1.01911
1.02115
1.02323
1.02538
1.02766
1.03013
1.03278
1.03556
1.03844
1.04146
1.04465
1.04817
1.05191
1.05589
1.06006
1.06452
1.0693
1.07435
1.07951
1.08418
1.08872
1.09256
1.0956
1.09622
1.09273
1.08627
1.07323
1.05668
1.03434
1.01197
0.99045
0.972345
0.9544
0.936138
0.921542
0.907648
0.891458
0.883607
0.880602
0.87575
0.868786
0.866765
0.870353
0.871295
0.868803
0.867722
0.87145
0.873481
0.872336
0.873297
0.877207
0.878077
0.876808
0.878831
0.879559
0.878622
0.880306
0.881512
0.882504
0.883491
0.882494
0.880843
0.880648
0.883263
0.882132
0.88032
0.8821
0.882372
0.88134
0.883483
0.886539
0.885524
0.884865
0.884777
0.883251
0.881957
0.883831
0.885753
0.884608
0.881608
0.881365
0.884567
0.885717
0.883385
0.881898
0.879975
0.879031
0.879638
0.883833
0.882236
0.880836
0.879765
0.877911
0.882879
0.882554
0.878604
0.87825
0.89679
0.94852
0.980044
0.990869
0.995371
0.99726
0.999388
1.00179
1.00388
1.00621
1.00872
1.01106
1.01443
1.01729
1.01962
1.02028
1.0204
1.0217
1.02394
1.02568
1.02677
1.02831
1.03038
1.03221
1.03375
1.0357
1.03734
1.03871
1.04011
1.04146
1.04263
1.04351
1.04421
1.04491
1.04563
1.04632
1.04693
1.04759
1.04836
1.04904
1.04947
1.04969
1.04981
1.04996
1.05022
1.05056
1.05093
1.05127
1.05154
1.05179
1.05203
1.05224
1.05246
1.05272
1.0531
1.05352
1.0539
1.05411
1.0542
1.05434
1.05465
1.05499
1.05523
1.05545
1.05567
1.05585
1.05602
1.0562
1.05637
1.05647
1.05653
1.05655
1.05651
1.0565
1.05663
1.05698
1.05752
1.05805
1.05856
1.0591
1.05957
1.06004
1.06021
1.06053
1.06052
1.06049
1.06045
1.05983
1.05754
1.05248
1.04336
1.0344
1.02861
1.02312
1.01798
1.01236
1.00769
1.00452
1.00252
1.00095
0.999591
0.998478
0.997576
0.996859
0.996269
0.995785
0.995354
0.994975
0.994662
0.994449
0.994367
0.994471
0.994509
0.99451
0.994473
0.99437
0.994453
0.994667
0.99498
0.995363
0.995795
0.996284
0.99688
0.997612
0.998531
0.999651
1.00103
1.00257
1.00431
1.00652
1.00934
1.01304
1.01716
1.01998
1.02215
1.02366
1.0253
1.02628
1.02615
1.02649
1.02714
1.02801
1.02916
1.03051
1.0313
1.03201
1.03298
1.03376
1.03445
1.03507
1.03567
1.03623
1.03677
1.03729
1.03777
1.03822
1.03865
1.03905
1.03941
1.0398
1.04017
1.04057
1.04099
1.04137
1.04177
1.04211
1.04241
1.04263
1.0428
1.04304
1.04338
1.04378
1.04417
1.04447
1.04477
1.04498
1.04508
1.04516
1.04525
1.04529
1.0453
1.04531
1.04531
1.04528
1.0452
1.04505
1.04486
1.04461
1.04428
1.0439
1.0435
1.04312
1.04279
1.04248
1.04219
1.04187
1.04139
1.04079
1.04008
1.03937
1.03873
1.03813
1.03746
1.03647
1.03526
1.03412
1.03291
1.03158
1.03039
1.02911
1.02767
1.02609
1.02441
1.02272
1.02105
1.01909
1.01594
1.01339
1.01225
1.01084
1.00789
1.00488
1.0016
0.998693
0.995973
0.993263
0.990287
0.987571
0.984758
0.982365
0.979485
0.975902
0.971769
0.969941
0.968712
0.969366
0.968052
0.967224
0.96569
0.96684
0.969591
0.971523
0.973075
0.972992
0.974104
0.975772
0.977721
0.979897
0.982556
0.983607
0.984958
0.987065
0.98877
0.990029
0.991134
0.992356
0.993841
0.995566
0.997251
0.998713
1.00004
1.00126
1.00253
1.00399
1.00563
1.0074
1.00934
1.01129
1.01323
1.01519
1.01718
1.0192
1.02122
1.02326
1.02539
1.02763
1.03008
1.03278
1.03564
1.03857
1.04163
1.04491
1.04844
1.05215
1.05605
1.06013
1.06451
1.06916
1.07392
1.07876
1.08334
1.08768
1.09127
1.0939
1.09423
1.09086
1.08467
1.07275
1.05744
1.03699
1.01604
0.99537
0.977145
0.959087
0.94202
0.926688
0.91077
0.896303
0.889761
0.88343
0.875049
0.869908
0.871268
0.871703
0.870294
0.8669
0.868682
0.872119
0.871686
0.870467
0.873574
0.875754
0.875025
0.87571
0.877732
0.876967
0.87751
0.878785
0.878511
0.879157
0.879072
0.878289
0.878552
0.880943
0.880182
0.87689
0.877009
0.878085
0.877395
0.878408
0.882121
0.881674
0.880253
0.882065
0.882182
0.880797
0.880869
0.881158
0.879926
0.877195
0.876772
0.880383
0.88195
0.879333
0.876204
0.875373
0.87426
0.875923
0.879067
0.879393
0.874432
0.873988
0.875902
0.877789
0.878956
0.875047
0.872545
0.875775
0.893967
0.943926
0.973624
0.982258
0.986027
0.987931
0.990465
0.99341
0.995818
0.998881
1.00222
1.005
1.00864
1.01174
1.01422
1.01511
1.01551
1.01709
1.01962
1.02147
1.0226
1.02423
1.02663
1.0294
1.03184
1.03368
1.03535
1.03694
1.03848
1.03994
1.04122
1.0423
1.04331
1.04423
1.04497
1.04561
1.04631
1.04717
1.04805
1.04875
1.04922
1.04951
1.04976
1.05003
1.05031
1.0506
1.05091
1.05125
1.05155
1.05179
1.05201
1.05222
1.05241
1.05266
1.05298
1.05333
1.05366
1.05391
1.05406
1.05422
1.05451
1.05489
1.05516
1.05534
1.05551
1.0557
1.05587
1.05604
1.05622
1.05635
1.05646
1.05651
1.05657
1.05662
1.05675
1.0571
1.05768
1.05841
1.05911
1.05969
1.06005
1.06028
1.06036
1.06034
1.06023
1.06063
1.06075
1.06043
1.05902
1.05537
1.04792
1.03742
1.02988
1.02411
1.01834
1.0125
1.00785
1.00455
1.00252
1.00094
0.999583
0.998476
0.997575
0.996858
0.996267
0.995784
0.995354
0.994974
0.994662
0.994449
0.994367
0.994471
0.994509
0.994511
0.994473
0.99437
0.994453
0.994667
0.994981
0.995363
0.995797
0.996286
0.996882
0.997615
0.998533
0.999654
1.00103
1.00259
1.00431
1.00635
1.00908
1.01272
1.01616
1.01909
1.02134
1.02279
1.02403
1.02554
1.02623
1.02646
1.02668
1.02752
1.02829
1.02944
1.03078
1.03157
1.03228
1.03289
1.03354
1.03415
1.03475
1.03531
1.03586
1.03638
1.03687
1.03732
1.03773
1.03811
1.03845
1.0388
1.03913
1.0395
1.03989
1.0403
1.04073
1.04115
1.04151
1.04177
1.04194
1.04216
1.04243
1.04279
1.04316
1.04349
1.04387
1.04416
1.0443
1.04436
1.04435
1.04432
1.04427
1.04425
1.04422
1.04416
1.04408
1.04396
1.04378
1.04354
1.04322
1.04285
1.04244
1.04201
1.04159
1.04119
1.04081
1.0404
1.0399
1.03929
1.03856
1.03781
1.03709
1.03639
1.03562
1.03449
1.0331
1.03187
1.03082
1.0294
1.02807
1.02694
1.02563
1.02407
1.02237
1.02066
1.01894
1.01676
1.01324
1.01049
1.00927
1.008
1.00543
1.00274
0.99981
0.996865
0.993966
0.991088
0.987997
0.985322
0.982683
0.980486
0.978326
0.976164
0.972323
0.968929
0.966432
0.96649
0.966763
0.967579
0.96624
0.965848
0.967467
0.969019
0.972081
0.973614
0.974478
0.975212
0.97705
0.978847
0.981534
0.983772
0.984462
0.985859
0.987604
0.989394
0.991005
0.992415
0.993428
0.994772
0.996345
0.998074
0.999754
1.00133
1.00277
1.00404
1.0055
1.00709
1.00881
1.01068
1.01271
1.01484
1.01705
1.01922
1.0213
1.02337
1.02553
1.0278
1.03021
1.03289
1.0358
1.03881
1.04189
1.04518
1.04866
1.05235
1.05623
1.06024
1.0645
1.06898
1.07349
1.07817
1.08258
1.08666
1.08994
1.09218
1.09225
1.08899
1.08308
1.07219
1.0579
1.03916
1.01953
0.999789
0.981426
0.96376
0.947529
0.931265
0.914758
0.903381
0.8949
0.885715
0.876532
0.875079
0.875045
0.872725
0.868014
0.867564
0.871202
0.871778
0.869621
0.870681
0.873956
0.87433
0.873669
0.876016
0.876415
0.875856
0.877295
0.876902
0.876421
0.876782
0.876502
0.876704
0.879412
0.8793
0.87599
0.873964
0.875624
0.875222
0.87519
0.87827
0.87897
0.877081
0.878004
0.880298
0.878248
0.877099
0.87718
0.875804
0.873363
0.873212
0.876126
0.878983
0.876642
0.873704
0.872571
0.873039
0.873832
0.875965
0.875227
0.872368
0.868821
0.871225
0.876246
0.874813
0.872103
0.869621
0.870708
0.874428
0.888149
0.936063
0.966329
0.974655
0.978836
0.981473
0.984367
0.98724
0.989868
0.992977
0.995888
0.998742
1.00228
1.00562
1.00851
1.01011
1.01105
1.01304
1.01566
1.01764
1.01889
1.02055
1.02319
1.02637
1.02901
1.03092
1.03264
1.03437
1.03609
1.03777
1.03933
1.04065
1.04189
1.04294
1.04376
1.04447
1.04531
1.04634
1.04726
1.04797
1.04852
1.04903
1.04948
1.04984
1.05011
1.05031
1.05051
1.05081
1.05114
1.05142
1.05166
1.05193
1.05223
1.05252
1.05277
1.05294
1.05315
1.05344
1.05377
1.05408
1.05437
1.05468
1.05492
1.05507
1.0552
1.05538
1.05558
1.05572
1.05584
1.05597
1.05613
1.05636
1.05664
1.05689
1.05707
1.05737
1.05795
1.05869
1.05946
1.06002
1.06033
1.06047
1.06058
1.06081
1.06107
1.06114
1.06117
1.06108
1.06033
1.05807
1.05207
1.0413
1.03161
1.0252
1.01892
1.01283
1.008
1.00462
1.00254
1.00093
0.999576
0.998472
0.997574
0.996858
0.996266
0.995783
0.995353
0.994973
0.994662
0.994449
0.994367
0.99447
0.994509
0.994511
0.994473
0.994371
0.994454
0.994668
0.994981
0.995364
0.995798
0.996287
0.996885
0.997618
0.998535
0.999658
1.00104
1.00262
1.00434
1.00629
1.00897
1.01258
1.01564
1.01864
1.02102
1.02257
1.02321
1.02402
1.02518
1.02584
1.02633
1.02745
1.02771
1.02838
1.02966
1.03081
1.03156
1.0322
1.03284
1.0334
1.03394
1.03444
1.03493
1.03541
1.03588
1.03635
1.03678
1.03719
1.03756
1.0379
1.03821
1.0385
1.03881
1.03915
1.03955
1.03995
1.04034
1.04068
1.04099
1.04132
1.04161
1.04188
1.04213
1.0424
1.04271
1.04301
1.04322
1.04337
1.04344
1.04343
1.04336
1.04324
1.04308
1.0429
1.04274
1.04257
1.04238
1.04215
1.04187
1.04154
1.04119
1.04082
1.04045
1.04006
1.03964
1.03912
1.03846
1.03774
1.03695
1.03612
1.03528
1.03444
1.03357
1.03239
1.031
1.02988
1.02906
1.02796
1.02636
1.02484
1.02341
1.02181
1.02005
1.01827
1.01649
1.01441
1.01142
1.00853
1.0072
1.00568
1.00305
1.00057
0.998009
0.995598
0.993003
0.990158
0.98671
0.983736
0.980876
0.978302
0.975588
0.97432
0.972398
0.96974
0.965804
0.964642
0.964094
0.966189
0.96656
0.966457
0.966816
0.967386
0.96992
0.972716
0.974617
0.975795
0.97726
0.97858
0.980423
0.983107
0.984765
0.985582
0.986843
0.988446
0.990366
0.992239
0.993638
0.994659
0.995884
0.997342
0.999024
1.00094
1.00265
1.00421
1.00573
1.00727
1.00886
1.01059
1.01245
1.01447
1.01666
1.01899
1.02127
1.02345
1.02568
1.02806
1.03053
1.03316
1.03601
1.03908
1.0422
1.04545
1.04887
1.0525
1.05633
1.06032
1.06451
1.06875
1.07313
1.07763
1.08182
1.0856
1.08856
1.09046
1.09029
1.08713
1.08148
1.07153
1.05822
1.04098
1.02246
1.00353
0.985248
0.968518
0.952408
0.934737
0.920341
0.909532
0.898744
0.886991
0.881056
0.880312
0.877051
0.871677
0.868547
0.870913
0.872701
0.871216
0.869371
0.872078
0.873657
0.872807
0.87403
0.875989
0.875355
0.875994
0.876472
0.875389
0.875671
0.875822
0.875825
0.877751
0.878724
0.876709
0.872888
0.873275
0.874365
0.87356
0.875073
0.876235
0.874874
0.874592
0.8775
0.877492
0.874205
0.872948
0.872053
0.87052
0.870106
0.872576
0.875597
0.874744
0.871247
0.870938
0.872671
0.873341
0.872819
0.872187
0.868751
0.867432
0.866614
0.871576
0.873152
0.868868
0.866855
0.867367
0.870647
0.869942
0.880525
0.928853
0.961534
0.971034
0.975349
0.977305
0.979429
0.982416
0.985549
0.987652
0.989256
0.99211
0.995941
1.0003
1.00434
1.00623
1.00715
1.00919
1.01212
1.0144
1.01573
1.01739
1.02004
1.02285
1.02494
1.02685
1.0287
1.03067
1.03273
1.03481
1.03682
1.03863
1.04023
1.04138
1.04227
1.04308
1.04397
1.04494
1.04584
1.04667
1.04744
1.04818
1.04877
1.0492
1.04948
1.04965
1.04981
1.05003
1.05031
1.05062
1.05095
1.05133
1.05173
1.0521
1.05237
1.05251
1.05263
1.05288
1.05329
1.05375
1.05406
1.05427
1.05445
1.05463
1.0548
1.055
1.05522
1.05541
1.05554
1.05567
1.05582
1.05608
1.05651
1.05702
1.05734
1.05762
1.05802
1.05861
1.0592
1.05972
1.06014
1.06045
1.06101
1.06158
1.06195
1.06211
1.06224
1.06176
1.0617
1.06003
1.05494
1.0453
1.03409
1.02642
1.01973
1.01335
1.00817
1.0047
1.00256
1.00092
0.99957
0.99847
0.997571
0.996857
0.996265
0.995781
0.995352
0.994973
0.994661
0.994449
0.994367
0.99447
0.994509
0.994511
0.994473
0.994371
0.994454
0.994668
0.994982
0.995365
0.995799
0.996289
0.996888
0.99762
0.998536
0.999662
1.00104
1.00265
1.00441
1.00628
1.009
1.01256
1.01548
1.01847
1.02078
1.02257
1.02308
1.02308
1.02385
1.02489
1.02578
1.02727
1.02796
1.02791
1.02861
1.02947
1.03039
1.03124
1.03198
1.0326
1.03314
1.03361
1.03404
1.03442
1.03483
1.03526
1.03573
1.03621
1.03667
1.0371
1.03748
1.0378
1.03806
1.03831
1.03859
1.03887
1.03918
1.03949
1.03983
1.04022
1.04065
1.04103
1.0413
1.04144
1.04157
1.04174
1.04193
1.04211
1.04228
1.04238
1.0424
1.04233
1.04218
1.04196
1.0417
1.04143
1.04115
1.04085
1.04051
1.04013
1.03971
1.03931
1.03893
1.03856
1.03815
1.03762
1.03691
1.03618
1.03542
1.03457
1.03366
1.03274
1.03185
1.03088
1.02971
1.02854
1.02749
1.02652
1.02538
1.02384
1.02213
1.02039
1.01852
1.01655
1.01454
1.01233
1.00985
1.0075
1.00609
1.0043
1.00167
0.999048
0.996304
0.994037
0.991825
0.989584
0.98662
0.983611
0.980384
0.977277
0.973885
0.971655
0.970694
0.969459
0.966694
0.964208
0.962698
0.963869
0.965418
0.966495
0.967497
0.967025
0.968736
0.970817
0.973664
0.975533
0.977077
0.978757
0.980022
0.98193
0.98436
0.985833
0.986832
0.988056
0.989652
0.991609
0.993434
0.994837
0.995972
0.997185
0.998623
1.00027
1.00222
1.00413
1.00578
1.00745
1.00914
1.01087
1.01267
1.01457
1.01661
1.0188
1.02108
1.02342
1.02581
1.02831
1.03088
1.03354
1.03631
1.03932
1.04248
1.04573
1.04912
1.05268
1.05644
1.06035
1.06443
1.06851
1.07278
1.07706
1.08099
1.08447
1.08712
1.08872
1.08834
1.08528
1.07987
1.07074
1.05836
1.04239
1.02482
1.00653
0.989138
0.972993
0.956307
0.939174
0.926422
0.913935
0.900901
0.890406
0.887244
0.883565
0.877964
0.871638
0.87173
0.874288
0.873615
0.870365
0.871025
0.873319
0.873231
0.872685
0.875103
0.875702
0.875083
0.876108
0.875464
0.874852
0.875776
0.876022
0.876815
0.877505
0.87689