/*--------------------------------*- C++ -*----------------------------------*\
| =========                 |                                                 |
| \\      /  F ield         | OpenFOAM: The Open Source CFD Toolbox           |
|  \\    /   O peration     | Version:  v2006                                 |
|   \\  /    A nd           | Website:  www.openfoam.com                      |
|    \\/     M anipulation  |                                                 |
\*---------------------------------------------------------------------------*/
FoamFile
{
    version     2.0;
    format      ascii;
    class       volScalarField;
    location    "185";
    object      TMean;
}
// * * * * * * * * * * * * * * * * * * * * * * * * * * * * * * * * * * * * * //

dimensions      [0 0 0 1 0 0 0];


internalField   nonuniform List<scalar> 
93840
(
0.996021
0.995966
0.995899
0.995983
0.996165
0.996422
0.996731
0.997093
0.997527
0.998075
0.998766
0.999644
1.00073
1.00206
1.00363
1.00551
1.00797
1.0116
1.01626
1.02083
1.02449
1.02739
1.02966
1.03174
1.03393
1.03608
1.03806
1.03978
1.04113
1.04233
1.04421
1.0504
1.03788
1.03964
1.03818
1.03855
1.03863
1.03913
1.03962
1.04006
1.04042
1.0408
1.04118
1.04154
1.04199
1.0424
1.04276
1.04307
1.0435
1.04387
1.0441
1.04452
1.04511
1.04554
1.04546
1.04556
1.04582
1.04626
1.04669
1.04684
1.047
1.04741
1.04756
1.0476
1.04775
1.04787
1.0479
1.04782
1.04797
1.04795
1.04791
1.04792
1.04778
1.04767
1.0476
1.04742
1.04729
1.04709
1.0468
1.04662
1.0464
1.04617
1.04587
1.04545
1.04513
1.04472
1.04427
1.04387
1.04344
1.04293
1.04221
1.04154
1.04081
1.04003
1.03919
1.03826
1.03735
1.03642
1.03544
1.0343
1.03312
1.03201
1.03069
1.02765
1.02573
1.02509
1.02398
1.02158
1.01954
1.01706
1.01462
1.01214
1.00957
1.00668
1.00411
1.00172
1.0001
0.998837
0.997712
0.995228
0.99375
0.990756
0.990122
0.988208
0.989153
0.988316
0.988694
0.990581
0.990471
0.992119
0.993378
0.995162
0.996249
0.997094
0.997633
0.99838
0.998859
0.999322
0.999708
1.00027
1.00097
1.00201
1.0033
1.00419
1.00516
1.00606
1.00692
1.00784
1.00892
1.01036
1.0114
1.0125
1.01393
1.01532
1.01673
1.01825
1.01981
1.02147
1.02343
1.02529
1.02675
1.02835
1.03032
1.03238
1.03459
1.03711
1.03988
1.04254
1.04505
1.04822
1.05186
1.05582
1.05942
1.06307
1.06841
1.07354
1.08
1.08804
1.09486
1.10071
1.10824
1.11216
1.10702
1.10067
1.05852
1.04649
0.997126
0.972436
0.956905
0.954408
0.933688
0.915773
0.903963
0.896289
0.889907
0.888071
0.887345
0.887401
0.888712
0.889315
0.892023
0.89466
0.896502
0.898828
0.900857
0.903759
0.906949
0.909668
0.912386
0.915222
0.91727
0.919306
0.921228
0.922803
0.92464
0.926602
0.928764
0.929818
0.930921
0.930955
0.929956
0.929981
0.930989
0.931999
0.933175
0.934677
0.935881
0.937153
0.938312
0.939956
0.940108
0.938566
0.937802
0.936943
0.936814
0.937314
0.937907
0.938228
0.938665
0.938562
0.93869
0.938347
0.938311
0.937737
0.937958
0.93777
0.938395
0.937026
0.939846
0.939671
0.93692
0.938296
0.937518
0.941707
0.962076
0.991916
1.00865
1.01302
1.01345
1.01338
1.01328
1.01369
1.01424
1.01515
1.01617
1.01745
1.01885
1.02026
1.0218
1.02469
1.02577
1.02613
1.02719
1.02956
1.03101
1.03159
1.03231
1.03356
1.03498
1.0361
1.03711
1.03809
1.03908
1.04002
1.04091
1.04184
1.04268
1.04347
1.04421
1.04492
1.04562
1.04627
1.04689
1.04748
1.04802
1.04853
1.049
1.04942
1.04982
1.05019
1.05052
1.05081
1.05107
1.05131
1.05153
1.05174
1.05194
1.05212
1.05229
1.05245
1.05261
1.05277
1.05295
1.05314
1.05332
1.05349
1.05364
1.05378
1.05392
1.05406
1.0542
1.05432
1.05443
1.05453
1.05462
1.05473
1.05486
1.05496
1.05507
1.05519
1.05533
1.05551
1.05572
1.05538
1.05577
1.04259
1.04841
1.05109
1.05005
1.04801
1.04568
1.04304
1.03989
1.03663
1.03356
1.03084
1.0282
1.02507
1.0213
1.01663
1.01183
1.00806
1.00552
1.00363
1.00206
1.00073
0.999641
0.998764
0.998073
0.997526
0.997092
0.99673
0.996422
0.996164
0.995983
0.995899
0.995966
0.996021
0.996021
0.995966
0.995899
0.995983
0.996165
0.996422
0.996731
0.997094
0.997528
0.998076
0.998769
0.999647
1.00074
1.00207
1.00364
1.0055
1.00788
1.01137
1.01587
1.02033
1.0239
1.02665
1.02864
1.03024
1.03174
1.03308
1.03417
1.03499
1.03572
1.03637
1.03707
1.03938
1.03703
1.03795
1.03776
1.03806
1.03838
1.03884
1.0393
1.03976
1.04018
1.04058
1.04099
1.04137
1.04179
1.04219
1.0426
1.04296
1.04334
1.04374
1.04408
1.04446
1.04492
1.04533
1.04544
1.04554
1.04582
1.04618
1.04658
1.0468
1.04699
1.04734
1.04752
1.04757
1.04772
1.04783
1.04785
1.04785
1.04791
1.0479
1.04789
1.04788
1.04777
1.04766
1.04757
1.0474
1.04725
1.04706
1.04678
1.04657
1.04635
1.0461
1.0458
1.04539
1.04504
1.04463
1.04417
1.04375
1.0433
1.04277
1.04207
1.04137
1.04062
1.03981
1.03895
1.038
1.03706
1.0361
1.03509
1.03392
1.03272
1.03155
1.03012
1.02732
1.02523
1.02445
1.02325
1.02093
1.01884
1.01628
1.01376
1.01119
1.00858
1.00561
1.00294
1.00033
0.998144
0.994838
0.992122
0.989147
0.987489
0.984588
0.983807
0.981981
0.982909
0.982213
0.982766
0.984501
0.984531
0.986256
0.98749
0.989376
0.990669
0.991861
0.992803
0.994266
0.995506
0.996786
0.997864
0.998815
0.9997
1.00082
1.00202
1.00301
1.00401
1.00495
1.00587
1.00686
1.00807
1.00935
1.01054
1.01183
1.01321
1.01463
1.01611
1.01769
1.01932
1.02108
1.02303
1.02491
1.0266
1.02835
1.03035
1.03249
1.0348
1.03736
1.04013
1.04292
1.04575
1.04895
1.05257
1.05652
1.06054
1.06482
1.06986
1.0751
1.0805
1.08708
1.09334
1.09992
1.10561
1.10812
1.10147
1.09359
1.06913
1.04923
1.01573
0.988452
0.96647
0.955533
0.937944
0.919248
0.905665
0.896474
0.887072
0.883148
0.881065
0.879763
0.879838
0.879686
0.881313
0.883436
0.885134
0.887
0.888727
0.891121
0.893894
0.89636
0.898786
0.901298
0.903166
0.904944
0.906621
0.907958
0.909496
0.911227
0.913125
0.914092
0.915039
0.9152
0.914097
0.913906
0.914789
0.91576
0.916911
0.918355
0.91956
0.920786
0.92197
0.923525
0.923906
0.922302
0.921538
0.920563
0.920314
0.920771
0.921388
0.92171
0.922206
0.922082
0.922294
0.921898
0.921975
0.921299
0.921585
0.921341
0.922124
0.920554
0.923375
0.923669
0.92066
0.922055
0.92148
0.925817
0.946998
0.983254
1.00608
1.0117
1.01245
1.01251
1.0125
1.01295
1.01355
1.01451
1.01558
1.01689
1.01834
1.01984
1.02157
1.02426
1.02541
1.02585
1.02709
1.02938
1.03081
1.03143
1.03224
1.03358
1.03497
1.03608
1.03713
1.03816
1.03918
1.04014
1.04107
1.042
1.04285
1.04365
1.04441
1.04514
1.04584
1.0465
1.04713
1.04772
1.04827
1.04878
1.04925
1.04969
1.05009
1.05045
1.05078
1.05107
1.05133
1.05157
1.05179
1.05199
1.05218
1.05236
1.05252
1.05269
1.05284
1.05301
1.05318
1.05337
1.05355
1.05372
1.05387
1.05402
1.05416
1.0543
1.05444
1.05457
1.05468
1.05478
1.05487
1.05497
1.05509
1.0552
1.05533
1.05545
1.05552
1.05551
1.05542
1.05493
1.05478
1.05432
1.05455
1.05481
1.05456
1.05342
1.05164
1.04899
1.04527
1.04079
1.03634
1.03255
1.02928
1.02579
1.02185
1.01707
1.01211
1.00816
1.00554
1.00363
1.00205
1.00073
0.999637
0.998762
0.998071
0.997524
0.997092
0.99673
0.996421
0.996164
0.995983
0.995898
0.995966
0.996021
0.996021
0.995967
0.995899
0.995984
0.996165
0.996423
0.996732
0.997095
0.997529
0.998078
0.998771
0.999651
1.00074
1.00207
1.00364
1.00548
1.0078
1.01113
1.01546
1.01981
1.02331
1.02594
1.02774
1.02902
1.03005
1.03086
1.03145
1.03189
1.03243
1.03316
1.03415
1.03544
1.0355
1.03659
1.03723
1.0376
1.03804
1.03852
1.03898
1.03946
1.0399
1.04032
1.04074
1.04114
1.04156
1.04197
1.04241
1.04278
1.04317
1.04359
1.04394
1.0443
1.04473
1.04513
1.04531
1.04545
1.04572
1.04605
1.04644
1.0467
1.04689
1.04721
1.0474
1.04748
1.04761
1.04771
1.04773
1.04775
1.04779
1.04779
1.04778
1.04775
1.04764
1.04753
1.04743
1.04727
1.04711
1.0469
1.04663
1.04641
1.04617
1.04591
1.04559
1.04519
1.0448
1.04438
1.04391
1.04346
1.04298
1.04242
1.04172
1.04098
1.04019
1.03934
1.03842
1.03742
1.03644
1.03541
1.03433
1.03312
1.03187
1.03065
1.0291
1.02632
1.02401
1.02321
1.02195
1.01956
1.01737
1.01465
1.01198
1.00928
1.00654
1.00334
1.00043
0.997358
0.994391
0.989998
0.986857
0.984004
0.982237
0.979423
0.978576
0.976838
0.977719
0.977204
0.977828
0.979585
0.97971
0.981431
0.982676
0.984574
0.986032
0.987425
0.988585
0.990315
0.991939
0.993636
0.995108
0.996293
0.99732
0.998501
0.999759
1.00084
1.00191
1.00294
1.00396
1.00505
1.00634
1.00764
1.00895
1.01034
1.01177
1.01327
1.01483
1.01649
1.01822
1.02009
1.02208
1.02403
1.02589
1.02778
1.02983
1.03203
1.03442
1.03703
1.03983
1.04267
1.04559
1.04888
1.05255
1.05653
1.06065
1.06512
1.07017
1.07549
1.08186
1.08824
1.09376
1.09817
1.10247
1.10416
1.10102
1.09478
1.07474
1.05285
1.02304
0.995707
0.973196
0.958035
0.940223
0.92156
0.906388
0.895859
0.884867
0.87936
0.876257
0.87408
0.873322
0.872653
0.873565
0.875294
0.876774
0.878261
0.879622
0.881573
0.88391
0.886041
0.88813
0.89027
0.891881
0.893358
0.894742
0.895826
0.897058
0.898533
0.900145
0.901029
0.901819
0.902035
0.900927
0.900504
0.90126
0.902158
0.903237
0.904579
0.90573
0.906876
0.908027
0.909462
0.909968
0.908407
0.907607
0.906552
0.906179
0.906583
0.90719
0.907506
0.908006
0.907887
0.908124
0.907714
0.907834
0.907113
0.907407
0.907134
0.907946
0.906344
0.909063
0.909671
0.90665
0.907955
0.907577
0.911837
0.932921
0.972244
1.00004
1.00817
1.00976
1.0102
1.01042
1.01105
1.01179
1.01289
1.01407
1.01549
1.01701
1.01861
1.02058
1.02326
1.02449
1.02497
1.02635
1.02865
1.03017
1.03081
1.03169
1.03312
1.03455
1.0357
1.0368
1.03788
1.03894
1.03995
1.04092
1.04188
1.04275
1.04357
1.04436
1.04511
1.04583
1.04651
1.04716
1.04776
1.04832
1.04884
1.04933
1.04977
1.05018
1.05055
1.05088
1.05117
1.05144
1.05168
1.0519
1.0521
1.05228
1.05246
1.05262
1.05279
1.05295
1.05311
1.05329
1.05347
1.05364
1.05381
1.05398
1.05413
1.05427
1.05442
1.05455
1.05468
1.05479
1.05489
1.05498
1.05507
1.05518
1.05529
1.05541
1.05555
1.05571
1.05583
1.05576
1.05579
1.05616
1.05645
1.05718
1.05738
1.05738
1.0568
1.05559
1.05388
1.05081
1.04582
1.03989
1.0347
1.03053
1.0266
1.02244
1.01753
1.01239
1.00828
1.00557
1.00363
1.00204
1.00072
0.999634
0.998759
0.99807
0.997523
0.997091
0.996729
0.996421
0.996164
0.995982
0.995898
0.995966
0.99602
0.996021
0.995967
0.995899
0.995984
0.996166
0.996423
0.996733
0.997096
0.99753
0.99808
0.998773
0.999654
1.00075
1.00208
1.00364
1.00547
1.00773
1.01093
1.0151
1.01934
1.02278
1.02531
1.02701
1.02813
1.02893
1.02951
1.02995
1.0304
1.03103
1.03184
1.03282
1.034
1.03478
1.03586
1.03659
1.03713
1.03764
1.03813
1.03861
1.0391
1.03956
1.03999
1.04043
1.04083
1.04126
1.04168
1.04212
1.04251
1.04291
1.04334
1.04369
1.04405
1.04444
1.04484
1.04508
1.04525
1.04552
1.04584
1.04621
1.04648
1.04668
1.04697
1.04718
1.04727
1.04739
1.04748
1.04752
1.04755
1.04757
1.04757
1.04756
1.04751
1.04741
1.04731
1.04719
1.04702
1.04685
1.04663
1.04636
1.04612
1.04586
1.04557
1.04523
1.04482
1.0444
1.04395
1.04345
1.04297
1.04246
1.04186
1.04114
1.04035
1.03949
1.03857
1.03757
1.03651
1.03544
1.03433
1.03316
1.03189
1.03058
1.02928
1.02762
1.02481
1.02233
1.02136
1.01999
1.01759
1.01529
1.01238
1.00953
1.00665
1.00376
1.00034
0.997172
0.993731
0.990428
0.98626
0.983358
0.980615
0.978795
0.97611
0.975226
0.973575
0.974399
0.974027
0.974708
0.976422
0.976673
0.978368
0.979609
0.981476
0.982976
0.98448
0.985806
0.987654
0.989362
0.991083
0.992601
0.993859
0.994992
0.996255
0.997594
0.998811
0.999995
1.00114
1.00227
1.00348
1.00483
1.0062
1.00765
1.00911
1.01058
1.01217
1.01383
1.01555
1.01736
1.01928
1.02131
1.02332
1.02529
1.02728
1.02939
1.03166
1.03411
1.03678
1.03962
1.04253
1.04557
1.04889
1.05259
1.0566
1.0608
1.06531
1.07029
1.07559
1.08165
1.08728
1.09228
1.09616
1.09978
1.10098
1.09776
1.09129
1.07384
1.05392
1.02696
1.00143
0.979032
0.961888
0.944003
0.925441
0.909294
0.897649
0.885731
0.878961
0.875013
0.87216
0.870734
0.869543
0.869859
0.871194
0.872453
0.873696
0.874821
0.876408
0.878356
0.880144
0.881901
0.883699
0.885036
0.886225
0.887328
0.888163
0.889126
0.890365
0.891759
0.892556
0.893235
0.893454
0.892385
0.891787
0.89237
0.89315
0.894107
0.895318
0.896372
0.897414
0.898489
0.899808
0.90036
0.898887
0.898047
0.896956
0.89647
0.896782
0.897338
0.897624
0.898097
0.897979
0.898209
0.8978
0.897923
0.897194
0.897462
0.89716
0.897957
0.896356
0.898916
0.89974
0.896807
0.89797
0.89769
0.901752
0.922287
0.96146
0.991413
1.0021
1.00508
1.0063
1.007
1.00799
1.00899
1.01031
1.01167
1.01324
1.01493
1.01673
1.01894
1.02171
1.02304
1.02361
1.02518
1.02757
1.02918
1.02989
1.03087
1.0324
1.0339
1.0351
1.03627
1.03741
1.03853
1.03959
1.04061
1.04161
1.04251
1.04337
1.04419
1.04497
1.04572
1.04643
1.04709
1.04772
1.0483
1.04884
1.04934
1.04979
1.05021
1.05059
1.05092
1.05123
1.0515
1.05174
1.05196
1.05216
1.05235
1.05252
1.05269
1.05286
1.05302
1.05319
1.05336
1.05354
1.05371
1.05388
1.05405
1.0542
1.05435
1.05449
1.05463
1.05475
1.05486
1.05496
1.05506
1.05514
1.05523
1.05535
1.05549
1.05563
1.0558
1.05604
1.05635
1.05675
1.05707
1.05768
1.05809
1.05835
1.05842
1.05822
1.05768
1.05663
1.05455
1.05048
1.04394
1.03723
1.03197
1.02746
1.02301
1.01796
1.01267
1.0084
1.00559
1.00363
1.00204
1.00072
0.999631
0.998757
0.998068
0.997522
0.99709
0.996729
0.99642
0.996163
0.995982
0.995898
0.995966
0.99602
0.996021
0.995967
0.995899
0.995984
0.996166
0.996424
0.996733
0.997096
0.997531
0.998081
0.998776
0.999657
1.00075
1.00208
1.00365
1.00547
1.00767
1.01073
1.01475
1.01888
1.02226
1.02472
1.02636
1.02739
1.02808
1.02857
1.02901
1.02956
1.03033
1.03123
1.03224
1.03335
1.03425
1.03525
1.036
1.03661
1.03715
1.03767
1.03817
1.03866
1.03912
1.03957
1.04001
1.04043
1.04087
1.0413
1.04174
1.04214
1.04254
1.04295
1.04331
1.04367
1.04405
1.04445
1.04472
1.04493
1.0452
1.04551
1.04586
1.04613
1.04634
1.04661
1.04683
1.04694
1.04705
1.04713
1.04718
1.0472
1.04722
1.04721
1.04718
1.04712
1.04702
1.0469
1.04677
1.04659
1.0464
1.04616
1.04588
1.04561
1.04531
1.04499
1.04462
1.04417
1.04371
1.04321
1.04268
1.04215
1.04158
1.04094
1.04016
1.03931
1.03837
1.03734
1.03623
1.03505
1.03387
1.03264
1.03136
1.02999
1.0286
1.02721
1.02545
1.0225
1.01984
1.01877
1.01734
1.01484
1.01239
1.00928
1.00627
1.00328
1.00031
0.996778
0.993541
0.99013
0.987054
0.983501
0.98086
0.978206
0.976359
0.973794
0.972893
0.971321
0.972086
0.971833
0.972555
0.97424
0.974582
0.97625
0.977513
0.979335
0.980835
0.982372
0.983827
0.98574
0.987462
0.989104
0.990583
0.991867
0.993079
0.994437
0.9959
0.997228
0.998516
0.99976
1.00099
1.00228
1.0037
1.00517
1.00668
1.00818
1.00972
1.01139
1.0131
1.01487
1.01672
1.01868
1.02074
1.0228
1.02482
1.02688
1.02906
1.0314
1.03394
1.03666
1.03953
1.04247
1.04558
1.049
1.05275
1.05674
1.06091
1.0654
1.07027
1.07548
1.08108
1.08599
1.09057
1.09441
1.09774
1.09856
1.0949
1.08825
1.07346
1.05546
1.03081
1.0069
0.984631
0.966787
0.948873
0.930631
0.91395
0.901199
0.888426
0.880297
0.875403
0.871869
0.869838
0.868221
0.868032
0.86898
0.870005
0.871009
0.871914
0.873231
0.874935
0.87652
0.878029
0.879549
0.880649
0.881579
0.882423
0.883024
0.883743
0.88477
0.88599
0.886712
0.887306
0.887505
0.886469
0.885731
0.886124
0.886768
0.887586
0.888657
0.889603
0.890537
0.89152
0.892739
0.89331
0.89193
0.891056
0.88995
0.889368
0.889577
0.890072
0.890321
0.890762
0.890644
0.890857
0.890454
0.890566
0.889846
0.890069
0.889749
0.890517
0.888951
0.891318
0.892297
0.889506
0.890504
0.890278
0.894068
0.913925
0.951759
0.981346
0.993288
0.997699
0.999978
1.00135
1.00289
1.00429
1.00596
1.00761
1.00948
1.01143
1.01349
1.01601
1.01899
1.02047
1.02115
1.02293
1.02548
1.02726
1.02807
1.02917
1.03085
1.0325
1.03382
1.03509
1.03634
1.03757
1.03873
1.03985
1.04093
1.04191
1.04284
1.04372
1.04457
1.04537
1.04613
1.04684
1.0475
1.04811
1.04869
1.04921
1.0497
1.05014
1.05053
1.05088
1.0512
1.05149
1.05174
1.05197
1.05218
1.05237
1.05255
1.05272
1.05289
1.05305
1.05323
1.0534
1.05358
1.05375
1.05393
1.05409
1.05425
1.05441
1.05455
1.05468
1.05481
1.05492
1.05503
1.05512
1.05521
1.05531
1.05543
1.05558
1.05576
1.05599
1.05632
1.05669
1.05713
1.05765
1.05828
1.0587
1.0589
1.05922
1.05914
1.0589
1.05839
1.05705
1.05414
1.0484
1.04051
1.03382
1.02852
1.02365
1.01843
1.01297
1.00853
1.00562
1.00363
1.00204
1.00071
0.999627
0.998754
0.998066
0.997521
0.997089
0.996728
0.99642
0.996163
0.995982
0.995898
0.995966
0.99602
0.996021
0.995967
0.9959
0.995984
0.996166
0.996424
0.996734
0.997097
0.997533
0.998083
0.998778
0.99966
1.00076
1.00209
1.00365
1.00546
1.00762
1.01055
1.0144
1.01842
1.02174
1.02414
1.02574
1.02673
1.02737
1.02785
1.02836
1.02902
1.02985
1.03077
1.03176
1.0328
1.03371
1.03462
1.03534
1.03598
1.03655
1.03709
1.03759
1.03809
1.03856
1.03901
1.03946
1.0399
1.04034
1.04077
1.04121
1.04161
1.04201
1.04242
1.04278
1.04315
1.04353
1.04391
1.0442
1.04443
1.04471
1.04501
1.04534
1.04562
1.04582
1.04608
1.0463
1.04642
1.04652
1.04661
1.04665
1.04667
1.04667
1.04665
1.04661
1.04654
1.04642
1.04629
1.04613
1.04593
1.04572
1.04546
1.04515
1.04484
1.04451
1.04414
1.04372
1.04322
1.0427
1.04214
1.04155
1.04096
1.04033
1.03962
1.03878
1.03784
1.0368
1.03565
1.03441
1.03311
1.03181
1.03046
1.02905
1.02758
1.02609
1.0246
1.02275
1.01972
1.01695
1.01573
1.01424
1.01173
1.00921
1.00607
1.00306
1.00011
0.997192
0.993805
0.990727
0.987582
0.984793
0.981597
0.979077
0.976465
0.974611
0.972154
0.971242
0.969746
0.970469
0.970292
0.971056
0.972696
0.973123
0.974779
0.976073
0.977886
0.979385
0.980932
0.982495
0.984452
0.986191
0.987794
0.989278
0.990605
0.991892
0.99331
0.994849
0.996269
0.997631
0.998945
1.00025
1.0016
1.00306
1.00458
1.00613
1.00767
1.00926
1.01097
1.01272
1.01453
1.0164
1.01837
1.02045
1.02253
1.02459
1.0267
1.02894
1.03133
1.0339
1.03664
1.03954
1.04254
1.04572
1.04921
1.05293
1.05688
1.06099
1.06541
1.07015
1.07514
1.08023
1.08483
1.0893
1.09305
1.09599
1.09648
1.09287
1.08628
1.07311
1.05642
1.03393
1.01153
0.989974
0.971831
0.95413
0.936167
0.919449
0.905936
0.892665
0.883292
0.877352
0.873057
0.870399
0.868352
0.867616
0.86811
0.868861
0.869624
0.870321
0.8714
0.872898
0.874343
0.875706
0.87706
0.878012
0.878746
0.879379
0.879785
0.880299
0.881136
0.8822
0.882848
0.883353
0.88351
0.88249
0.881627
0.881826
0.882328
0.88301
0.883944
0.884787
0.88562
0.886514
0.887638
0.888216
0.88693
0.886019
0.884895
0.884223
0.884319
0.88474
0.884949
0.885347
0.885228
0.885411
0.885016
0.8851
0.884398
0.884564
0.884232
0.884959
0.883456
0.885585
0.886678
0.884065
0.884875
0.884681
0.888173
0.907352
0.944356
0.972976
0.984245
0.989007
0.991985
0.994035
0.996197
0.998071
1.00015
1.00213
1.00432
1.00661
1.00902
1.01187
1.01507
1.01677
1.01765
1.01971
1.02248
1.02443
1.02541
1.0267
1.02859
1.03044
1.03191
1.03333
1.03473
1.0361
1.03741
1.03866
1.03985
1.04094
1.04197
1.04295
1.04388
1.04476
1.04559
1.04636
1.04709
1.04775
1.04837
1.04894
1.04946
1.04993
1.05036
1.05074
1.05108
1.05138
1.05165
1.0519
1.05212
1.05233
1.05251
1.05269
1.05287
1.05304
1.05322
1.0534
1.05358
1.05376
1.05393
1.0541
1.05427
1.05442
1.05457
1.05471
1.05484
1.05495
1.05506
1.05517
1.05526
1.05536
1.05549
1.05566
1.05588
1.05616
1.05653
1.05698
1.05743
1.05799
1.05852
1.05903
1.05941
1.05953
1.05975
1.05972
1.05941
1.0587
1.05671
1.05234
1.04444
1.03617
1.02983
1.02441
1.01894
1.01331
1.00867
1.00566
1.00363
1.00203
1.00071
0.999624
0.998752
0.998065
0.99752
0.997088
0.996727
0.99642
0.996163
0.995982
0.995898
0.995966
0.99602
0.996021
0.995967
0.9959
0.995985
0.996167
0.996425
0.996734
0.997098
0.997534
0.998085
0.998781
0.999664
1.00076
1.00209
1.00366
1.00546
1.00757
1.01038
1.01407
1.01796
1.02122
1.02358
1.02514
1.02611
1.02674
1.02724
1.02781
1.02855
1.02939
1.0303
1.03124
1.03219
1.03306
1.03389
1.03459
1.03524
1.03582
1.03637
1.03688
1.03738
1.03785
1.03831
1.03877
1.0392
1.03965
1.04007
1.04051
1.04091
1.04131
1.04171
1.04208
1.04246
1.04284
1.04321
1.0435
1.04375
1.04402
1.04433
1.04464
1.04491
1.04512
1.04536
1.04558
1.0457
1.0458
1.04587
1.04591
1.04592
1.0459
1.04587
1.04581
1.04571
1.04558
1.04542
1.04524
1.04501
1.04477
1.04447
1.04412
1.04377
1.04338
1.04296
1.04248
1.04191
1.04132
1.04069
1.04004
1.03938
1.03868
1.03791
1.037
1.036
1.03488
1.03367
1.03235
1.03098
1.0296
1.02817
1.02668
1.02512
1.02354
1.02195
1.02
1.01692
1.01416
1.01291
1.01136
1.0088
1.00628
1.00324
1.00035
0.997521
0.994736
0.991546
0.98866
0.985739
0.983148
0.980135
0.977667
0.975087
0.973239
0.970868
0.969952
0.968535
0.96923
0.969119
0.969917
0.971527
0.972028
0.973684
0.975022
0.976849
0.978378
0.979954
0.981597
0.983563
0.985302
0.986895
0.988402
0.989773
0.991121
0.992586
0.99417
0.99564
0.997049
0.998406
0.999756
1.00115
1.00265
1.0042
1.00577
1.00734
1.00898
1.0107
1.01247
1.0143
1.0162
1.0182
1.02028
1.02239
1.02448
1.02663
1.02891
1.03134
1.03395
1.03673
1.03965
1.04271
1.04597
1.04945
1.05314
1.05701
1.06107
1.0654
1.06999
1.0747
1.07947
1.08398
1.08825
1.09175
1.0943
1.0945
1.09103
1.08471
1.07268
1.05724
1.03666
1.01566
0.994876
0.976686
0.959123
0.941515
0.924968
0.911032
0.897573
0.887402
0.880496
0.8754
0.87206
0.86954
0.868254
0.868237
0.868657
0.869158
0.869629
0.870462
0.871748
0.873063
0.874315
0.875558
0.876436
0.877056
0.877547
0.877813
0.878153
0.878804
0.879707
0.880259
0.880651
0.880726
0.879685
0.878688
0.878701
0.87908
0.879648
0.880466
0.881222
0.881966
0.882774
0.883811
0.884385
0.88317
0.882206
0.881055
0.880299
0.880292
0.880648
0.880823
0.881179
0.881055
0.881203
0.880815
0.880865
0.880183
0.880291
0.879954
0.880634
0.87921
0.881097
0.882278
0.87984
0.880454
0.880285
0.883482
0.901984
0.938638
0.966843
0.976952
0.981148
0.984117
0.986495
0.989029
0.991224
0.993555
0.995737
0.998092
1.0006
1.00328
1.00636
1.00976
1.01172
1.01288
1.01521
1.0182
1.02035
1.02157
1.02311
1.02526
1.02734
1.02901
1.03061
1.0322
1.03377
1.03526
1.03668
1.03804
1.03929
1.04046
1.04158
1.04265
1.04366
1.0446
1.04549
1.04631
1.04707
1.04777
1.04841
1.049
1.04953
1.05001
1.05043
1.05081
1.05115
1.05145
1.05173
1.05197
1.05219
1.0524
1.05259
1.05278
1.05296
1.05315
1.05333
1.05352
1.0537
1.05388
1.05406
1.05423
1.05439
1.05454
1.05468
1.05481
1.05494
1.05506
1.05517
1.05528
1.0554
1.05555
1.05574
1.056
1.05632
1.0567
1.05713
1.05763
1.05817
1.05877
1.05928
1.05974
1.0601
1.06019
1.06019
1.06021
1.05969
1.0585
1.0553
1.04863
1.03918
1.03148
1.02531
1.0195
1.01367
1.00884
1.0057
1.00363
1.00203
1.0007
0.99962
0.99875
0.998063
0.997519
0.997088
0.996727
0.996419
0.996162
0.995981
0.995897
0.995965
0.99602
0.996021
0.995967
0.9959
0.995985
0.996167
0.996425
0.996735
0.997099
0.997535
0.998087
0.998783
0.999667
1.00077
1.0021
1.00366
1.00545
1.00753
1.01022
1.01374
1.0175
1.02069
1.02301
1.02454
1.0255
1.02614
1.02667
1.0273
1.02806
1.02888
1.02974
1.03061
1.03148
1.03228
1.03305
1.03373
1.03438
1.03495
1.0355
1.03601
1.03651
1.03698
1.03745
1.0379
1.03834
1.03878
1.0392
1.03963
1.04003
1.04043
1.04084
1.04121
1.04159
1.04196
1.04232
1.04262
1.04287
1.04315
1.04345
1.04374
1.04401
1.04422
1.04445
1.04466
1.04478
1.04487
1.04494
1.04497
1.04496
1.04493
1.04488
1.0448
1.04468
1.04453
1.04435
1.04413
1.04388
1.0436
1.04326
1.04287
1.04247
1.04204
1.04157
1.04103
1.0404
1.03975
1.03908
1.03837
1.03767
1.03692
1.0361
1.03514
1.03409
1.03295
1.03173
1.03041
1.02902
1.02762
1.02616
1.02464
1.02302
1.02136
1.01967
1.01762
1.01459
1.01191
1.0106
1.00901
1.00645
1.00394
1.00104
0.998278
0.995589
0.992948
0.989934
0.987185
0.98439
0.9819
0.978946
0.976486
0.973928
0.972085
0.969787
0.968868
0.967535
0.968205
0.968137
0.968976
0.970546
0.971129
0.972802
0.974193
0.976072
0.977652
0.979271
0.980965
0.982915
0.984657
0.986266
0.987805
0.989216
0.990613
0.992111
0.993717
0.99521
0.996646
0.998028
0.999406
1.00082
1.00235
1.00391
1.0055
1.00711
1.00878
1.01052
1.01231
1.01417
1.01609
1.01811
1.02021
1.02233
1.02445
1.02665
1.02898
1.03146
1.03411
1.03692
1.03988
1.04296
1.04623
1.04969
1.05331
1.05714
1.06114
1.06538
1.06979
1.07425
1.07887
1.08322
1.08722
1.09042
1.09259
1.09253
1.08918
1.08316
1.07215
1.05775
1.03888
1.01915
0.999246
0.981176
0.963809
0.94655
0.930188
0.916031
0.902518
0.891909
0.884306
0.878516
0.874498
0.87148
0.869683
0.869165
0.869233
0.86946
0.869688
0.870245
0.871282
0.872437
0.873567
0.874705
0.875528
0.876077
0.876476
0.876642
0.876837
0.877317
0.878058
0.878501
0.878765
0.878737
0.87765
0.876518
0.876343
0.8766
0.877066
0.877782
0.878462
0.879128
0.879855
0.880807
0.881362
0.880196
0.879158
0.877961
0.877118
0.877011
0.877302
0.87744
0.877746
0.87761
0.877714
0.877325
0.877334
0.876667
0.876716
0.876377
0.877015
0.875659
0.877335
0.878598
0.876288
0.876733
0.876587
0.879547
0.897466
0.934055
0.962434
0.971684
0.975167
0.977763
0.9801
0.982696
0.985014
0.987434
0.989677
0.992049
0.994589
0.997345
1.00049
1.00397
1.00614
1.00755
1.0101
1.01328
1.01563
1.0171
1.01889
1.02129
1.0236
1.02548
1.02729
1.02908
1.03084
1.03252
1.03413
1.03567
1.03709
1.03843
1.0397
1.04092
1.04207
1.04315
1.04417
1.04511
1.04598
1.04679
1.04753
1.0482
1.04882
1.04936
1.04986
1.0503
1.05069
1.05104
1.05136
1.05164
1.0519
1.05213
1.05235
1.05256
1.05276
1.05296
1.05316
1.05335
1.05355
1.05374
1.05392
1.0541
1.05427
1.05443
1.05458
1.05473
1.05486
1.05499
1.05512
1.05525
1.05538
1.05555
1.05576
1.05603
1.05636
1.05674
1.05718
1.0577
1.05825
1.05885
1.05942
1.05992
1.06034
1.06062
1.06076
1.06059
1.06048
1.05961
1.05746
1.05223
1.04283
1.03353
1.02638
1.02013
1.01407
1.00902
1.00574
1.00364
1.00202
1.0007
0.999617
0.998747
0.998061
0.997517
0.997087
0.996726
0.996419
0.996162
0.995981
0.995897
0.995965
0.99602
0.996021
0.995967
0.9959
0.995985
0.996167
0.996426
0.996736
0.9971
0.997536
0.998088
0.998786
0.999671
1.00077
1.0021
1.00367
1.00545
1.0075
1.01008
1.01342
1.01704
1.02014
1.02243
1.02394
1.02489
1.02554
1.02612
1.02678
1.02753
1.02831
1.02913
1.02994
1.03073
1.03147
1.03219
1.03284
1.03346
1.03403
1.03457
1.03508
1.03557
1.03604
1.0365
1.03695
1.03739
1.03782
1.03824
1.03867
1.03907
1.03948
1.03987
1.04025
1.04063
1.04098
1.04133
1.04163
1.0419
1.04218
1.04247
1.04276
1.04302
1.04323
1.04345
1.04365
1.04377
1.04386
1.04391
1.04393
1.04392
1.04388
1.04381
1.04371
1.04357
1.04339
1.04319
1.04294
1.04266
1.04234
1.04197
1.04155
1.04112
1.04066
1.04016
1.03958
1.03892
1.03825
1.03755
1.03682
1.03609
1.03532
1.03446
1.03347
1.0324
1.03126
1.03004
1.02873
1.02734
1.02593
1.02445
1.0229
1.02124
1.01952
1.01775
1.0156
1.01265
1.01008
1.00875
1.0071
1.00453
1.00206
0.999308
0.996682
0.994123
0.991602
0.988702
0.986032
0.983294
0.980837
0.977891
0.97542
0.972882
0.97105
0.968818
0.967909
0.966666
0.967303
0.967295
0.968165
0.969702
0.970382
0.972069
0.973528
0.97545
0.977093
0.978764
0.980487
0.982409
0.984152
0.985788
0.987358
0.988802
0.990234
0.991756
0.993367
0.994865
0.996316
0.997717
0.999121
1.00057
1.00211
1.00369
1.00531
1.00695
1.00865
1.01041
1.01223
1.01412
1.01607
1.01811
1.02021
1.02235
1.02451
1.02676
1.02913
1.03166
1.03435
1.03719
1.04015
1.04325
1.0465
1.04991
1.0535
1.05727
1.0612
1.06536
1.06955
1.07388
1.07832
1.08245
1.08615
1.08903
1.09086
1.09057
1.08734
1.08159
1.07152
1.0581
1.04071
1.02211
1.00311
0.985311
0.968182
0.951277
0.935107
0.920808
0.907263
0.896336
0.888235
0.881934
0.877341
0.873845
0.871573
0.870596
0.870332
0.870309
0.870313
0.870606
0.87138
0.872344
0.873327
0.87434
0.87509
0.875568
0.875887
0.875972
0.876045
0.876371
0.876963
0.877297
0.877435
0.877299
0.876162
0.874896
0.874533
0.874664
0.875028
0.875647
0.876253
0.876845
0.877493
0.878359
0.878882
0.877751
0.876629
0.875371
0.874437
0.874226
0.874445
0.87454
0.874788
0.874627
0.874677
0.874274
0.874233
0.873569
0.873555
0.873205
0.873793
0.872498
0.873979
0.8753
0.873105
0.873381
0.873245
0.875992
0.893421
0.930087
0.958987
0.967718
0.970525
0.972689
0.974823
0.977326
0.979676
0.982136
0.98443
0.986815
0.989319
0.992019
0.995102
0.998589
1.00092
1.00247
1.00507
1.00832
1.01088
1.01256
1.01453
1.0171
1.01959
1.02165
1.02363
1.02561
1.02756
1.02941
1.03118
1.03288
1.03446
1.03595
1.03737
1.03873
1.04001
1.04123
1.04238
1.04345
1.04445
1.04537
1.04623
1.04701
1.04772
1.04837
1.04895
1.04947
1.04994
1.05036
1.05074
1.05108
1.05138
1.05166
1.05191
1.05215
1.05238
1.05261
1.05283
1.05304
1.05325
1.05346
1.05365
1.05384
1.05402
1.0542
1.05436
1.05452
1.05467
1.05482
1.05497
1.05511
1.05527
1.05546
1.0557
1.05598
1.05632
1.0567
1.05714
1.05764
1.0582
1.0588
1.05941
1.06
1.06051
1.06087
1.06105
1.06116
1.06085
1.06048
1.05888
1.05497
1.04677
1.03606
1.02769
1.02085
1.01451
1.00922
1.00579
1.00364
1.00202
1.00069
0.999613
0.998744
0.998059
0.997516
0.997086
0.996726
0.996418
0.996162
0.995981
0.995897
0.995965
0.99602
0.996022
0.995968
0.9959
0.995986
0.996168
0.996426
0.996736
0.997101
0.997538
0.99809
0.998788
0.999675
1.00078
1.00211
1.00367
1.00545
1.00747
1.00994
1.01312
1.01658
1.01959
1.02183
1.02333
1.02429
1.02495
1.02556
1.02624
1.02698
1.02774
1.02851
1.02926
1.02999
1.03068
1.03135
1.03197
1.03257
1.03312
1.03365
1.03415
1.03464
1.0351
1.03556
1.036
1.03643
1.03687
1.03728
1.03771
1.03811
1.03851
1.0389
1.03927
1.03964
1.03998
1.04032
1.04063
1.04091
1.0412
1.04148
1.04175
1.04202
1.04223
1.04243
1.04262
1.04273
1.04281
1.04286
1.04287
1.04285
1.0428
1.04272
1.04261
1.04245
1.04226
1.04203
1.04177
1.04146
1.04112
1.04073
1.04029
1.03985
1.03937
1.03885
1.03826
1.0376
1.03693
1.03622
1.03549
1.03474
1.03394
1.03306
1.03205
1.03097
1.02982
1.02861
1.0273
1.02592
1.02451
1.02302
1.02145
1.01976
1.018
1.01617
1.01397
1.01113
1.00865
1.00727
1.00558
1.00302
1.0006
0.997989
0.995484
0.99302
0.990556
0.987716
0.985079
0.982354
0.979881
0.97692
0.974448
0.971944
0.970131
0.967965
0.967073
0.965922
0.966524
0.966585
0.967478
0.96899
0.96977
0.971471
0.972998
0.974949
0.976649
0.978362
0.980095
0.981982
0.983732
0.985394
0.986989
0.988461
0.989921
0.991461
0.993072
0.994579
0.996048
0.997471
0.998905
1.00038
1.00195
1.00355
1.00519
1.00686
1.00859
1.01038
1.01222
1.01413
1.01611
1.01817
1.02029
1.02245
1.02465
1.02695
1.02937
1.03194
1.03464
1.03747
1.04043
1.04351
1.04673
1.05011
1.05366
1.05738
1.06125
1.06526
1.0693
1.07352
1.07775
1.08161
1.08502
1.0876
1.08913
1.08863
1.08551
1.08001
1.07076
1.05828
1.04217
1.02459
1.00646
0.989067
0.972252
0.955703
0.939756
0.925377
0.911816
0.900595
0.892064
0.885357
0.880314
0.876411
0.873715
0.872321
0.871743
0.871491
0.871304
0.871372
0.871905
0.872681
0.87351
0.874384
0.875036
0.875422
0.87565
0.875653
0.875615
0.875805
0.876264
0.876504
0.876533
0.876298
0.875117
0.873728
0.873178