/*--------------------------------*- C++ -*----------------------------------*\
| =========                 |                                                 |
| \\      /  F ield         | OpenFOAM: The Open Source CFD Toolbox           |
|  \\    /   O peration     | Version:  v2006                                 |
|   \\  /    A nd           | Website:  www.openfoam.com                      |
|    \\/     M anipulation  |                                                 |
\*---------------------------------------------------------------------------*/
FoamFile
{
    version     2.0;
    format      ascii;
    class       volScalarField;
    location    "185";
    object      TPrime2Mean;
}
// * * * * * * * * * * * * * * * * * * * * * * * * * * * * * * * * * * * * * //

dimensions      [0 0 0 2 0 0 0];


internalField   nonuniform List<scalar> 
93840
(
6.59082e-07
6.752e-07
6.97913e-07
6.73644e-07
6.26181e-07
5.72983e-07
5.24376e-07
4.84238e-07
4.50721e-07
4.22158e-07
3.96617e-07
3.74179e-07
3.49249e-07
3.26989e-07
3.05864e-07
2.92557e-07
2.87493e-07
2.97094e-07
3.19119e-07
4.12282e-07
4.60668e-07
6.76533e-07
8.13756e-07
8.98473e-07
1.06528e-06
1.12624e-06
1.04381e-06
9.96954e-07
8.43682e-07
6.61031e-07
5.63915e-07
4.39648e-07
6.6963e-07
6.92195e-07
6.75315e-07
6.24875e-07
5.84794e-07
5.47336e-07
5.11968e-07
4.77341e-07
4.50015e-07
4.27422e-07
4.03847e-07
3.84187e-07
3.63703e-07
3.42472e-07
3.2328e-07
3.08475e-07
2.9557e-07
2.8155e-07
2.69862e-07
2.58386e-07
2.44514e-07
2.33477e-07
2.27717e-07
2.24399e-07
2.15946e-07
2.03105e-07
1.94077e-07
1.89496e-07
1.81831e-07
1.72716e-07
1.64371e-07
1.63091e-07
1.60041e-07
1.55686e-07
1.50937e-07
1.46391e-07
1.46932e-07
1.39924e-07
1.39684e-07
1.36712e-07
1.33796e-07
1.3049e-07
1.28225e-07
1.25596e-07
1.23235e-07
1.21305e-07
1.17855e-07
1.15712e-07
1.14327e-07
1.12705e-07
1.10447e-07
1.06802e-07
1.05995e-07
1.05613e-07
1.03962e-07
1.03801e-07
1.04395e-07
1.05025e-07
1.05188e-07
1.0511e-07
1.05298e-07
1.05803e-07
1.07402e-07
1.11701e-07
1.1791e-07
1.2435e-07
1.33165e-07
1.44607e-07
1.59065e-07
1.82458e-07
2.00176e-07
1.92733e-07
2.0855e-07
2.17798e-07
2.46951e-07
2.4886e-07
2.62421e-07
2.78772e-07
2.98917e-07
3.21788e-07
3.46978e-07
3.62021e-07
3.60526e-07
2.96666e-07
1.22898e-07
7.37437e-08
1.97281e-07
5.77477e-07
5.1088e-07
6.50155e-07
6.60505e-07
7.44746e-07
7.22573e-07
7.54527e-07
7.71301e-07
7.38598e-07
7.72822e-07
8.05082e-07
8.03985e-07
6.99045e-07
5.19488e-07
3.37901e-07
2.16289e-07
1.2798e-07
7.45389e-08
5.35627e-08
5.78489e-08
2.25185e-07
3.97218e-07
3.67695e-07
3.61075e-07
3.41205e-07
3.35754e-07
3.30062e-07
3.25308e-07
3.19556e-07
3.17324e-07
3.15338e-07
3.1898e-07
3.07421e-07
3.03522e-07
2.99932e-07
2.96361e-07
2.93013e-07
2.90115e-07
2.86672e-07
2.80157e-07
2.7328e-07
2.71193e-07
2.69348e-07
2.65024e-07
2.59602e-07
2.53579e-07
2.46322e-07
2.38068e-07
2.32295e-07
2.27574e-07
2.24222e-07
2.12638e-07
2.00543e-07
1.87998e-07
1.88874e-07
1.82353e-07
1.75804e-07
1.80271e-07
1.21452e-07
8.1207e-08
7.57835e-08
6.51684e-08
2.39355e-08
3.01992e-09
3.74332e-09
6.07861e-08
1.03433e-07
1.28957e-07
1.29466e-07
1.16531e-07
8.9032e-08
1.09592e-07
1.55995e-07
1.88485e-07
2.8684e-07
3.23592e-07
4.13509e-07
6.99969e-07
1.18652e-06
1.35753e-06
2.01968e-06
1.68271e-06
1.46331e-06
1.30022e-06
9.98647e-07
7.4349e-07
4.76855e-07
3.46162e-07
2.93742e-07
2.7376e-07
3.00424e-07
3.67528e-07
4.34216e-07
5.32681e-07
6.66026e-07
7.72799e-07
8.08812e-07
8.46103e-07
9.54467e-07
1.08236e-06
1.11388e-06
1.23869e-06
1.39124e-06
1.52611e-06
1.72801e-06
1.99291e-06
2.35556e-06
2.80271e-06
3.34071e-06
3.97509e-06
4.67829e-06
5.11366e-06
5.49117e-06
5.6712e-06
5.85294e-06
6.03781e-06
6.19714e-06
6.21447e-06
6.19569e-06
5.88003e-06
5.66967e-06
5.266e-06
5.0584e-06
4.71901e-06
4.62675e-06
4.5662e-06
4.69402e-06
4.83642e-06
4.84365e-06
5.38349e-06
5.41205e-06
5.23363e-06
5.23152e-06
6.81711e-06
5.5287e-05
0.000423001
0.000236783
1.02916e-05
6.8126e-06
1.2896e-05
1.2663e-05
1.08031e-05
8.7053e-06
6.95979e-06
5.58207e-06
4.57235e-06
3.75574e-06
3.12604e-06
2.67095e-06
2.19252e-06
1.90895e-06
1.71711e-06
1.60105e-06
1.41207e-06
1.31055e-06
1.23212e-06
1.16205e-06
1.15377e-06
1.14863e-06
1.16087e-06
1.13928e-06
1.13106e-06
1.13599e-06
1.14603e-06
1.15194e-06
1.16165e-06
1.17292e-06
1.18115e-06
1.19903e-06
1.22124e-06
1.24209e-06
1.25647e-06
1.26093e-06
1.25612e-06
1.2401e-06
1.21389e-06
1.18214e-06
1.14728e-06
1.11025e-06
1.06957e-06
1.02232e-06
9.74347e-07
9.32958e-07
8.96736e-07
8.62125e-07
8.27046e-07
7.89283e-07
7.49765e-07
7.16574e-07
6.9265e-07
6.78256e-07
6.75783e-07
6.84386e-07
6.93784e-07
6.91226e-07
6.80337e-07
6.65193e-07
6.48755e-07
6.32701e-07
6.16308e-07
5.94655e-07
5.73785e-07
5.56073e-07
5.43312e-07
5.33211e-07
5.24611e-07
5.34454e-07
5.1768e-07
5.15505e-07
5.26055e-07
5.40858e-07
5.56051e-07
5.60627e-07
5.09636e-07
3.24674e-07
2.75278e-07
1.9731e-07
1.7937e-07
2.15055e-07
3.08466e-07
4.83164e-07
6.19171e-07
7.86507e-07
1.03713e-06
1.00933e-06
8.62621e-07
7.68054e-07
6.26029e-07
4.39029e-07
3.96247e-07
3.13381e-07
2.94911e-07
2.87248e-07
2.92935e-07
3.06038e-07
3.27019e-07
3.49254e-07
3.74204e-07
3.96644e-07
4.22192e-07
4.50759e-07
4.84278e-07
5.24437e-07
5.73056e-07
6.26193e-07
6.737e-07
6.97954e-07
6.75233e-07
6.59111e-07
6.5907e-07
6.75162e-07
6.97865e-07
6.73592e-07
6.26081e-07
5.72958e-07
5.24333e-07
4.84186e-07
4.50676e-07
4.22118e-07
3.96586e-07
3.74151e-07
3.4924e-07
3.26953e-07
3.05635e-07
2.91833e-07
2.8625e-07
2.93589e-07
3.12809e-07
4.05403e-07
4.59056e-07
6.52847e-07
8.02123e-07
9.18348e-07
1.06996e-06
1.16805e-06
1.1426e-06
1.14797e-06
1.09751e-06
9.36618e-07
8.20374e-07
7.14955e-07
7.6114e-07
7.16834e-07
6.99714e-07
6.6713e-07
6.11641e-07
5.70466e-07
5.33934e-07
5.01079e-07
4.72003e-07
4.47242e-07
4.23334e-07
4.02426e-07
3.81541e-07
3.60701e-07
3.4066e-07
3.25779e-07
3.11104e-07
2.95326e-07
2.82266e-07
2.71177e-07
2.57489e-07
2.44295e-07
2.36358e-07
2.32309e-07
2.2402e-07
2.13009e-07
2.02898e-07
1.94707e-07
1.88045e-07
1.79074e-07
1.7153e-07
1.64401e-07
1.61492e-07
1.56764e-07
1.54433e-07
1.49627e-07
1.46724e-07
1.43505e-07
1.40933e-07
1.38425e-07
1.34788e-07
1.309e-07
1.29015e-07
1.25337e-07
1.22712e-07
1.21178e-07
1.16339e-07
1.13739e-07
1.12319e-07
1.10956e-07
1.0959e-07
1.05699e-07
1.04237e-07
1.03297e-07
1.00376e-07
9.91694e-08
9.88136e-08
9.83238e-08
9.75577e-08
9.851e-08
1.01162e-07
1.03723e-07
1.05864e-07
1.08315e-07
1.12116e-07
1.16692e-07
1.24272e-07
1.34292e-07
1.46208e-07
1.65052e-07
1.83041e-07
1.8539e-07
2.0916e-07
2.22124e-07
2.50039e-07
2.48117e-07
2.65807e-07
2.8536e-07
3.09392e-07
3.34391e-07
3.63965e-07
3.82934e-07
3.83365e-07
3.68928e-07
4.0564e-07
5.815e-07
7.42153e-07
7.28645e-07
7.0655e-07
8.25873e-07
8.46282e-07
9.17462e-07
8.79707e-07
9.2919e-07
9.01709e-07
8.81932e-07
8.89479e-07
8.66905e-07
8.85393e-07
7.83371e-07
6.81515e-07
5.82144e-07
5.59524e-07
5.85957e-07
5.38754e-07
4.57373e-07
4.24172e-07
4.30407e-07
4.22307e-07
3.88277e-07
3.73773e-07
3.60585e-07
3.54043e-07
3.47618e-07
3.41733e-07
3.36333e-07
3.35054e-07
3.32732e-07
3.28438e-07
3.18816e-07
3.15891e-07
3.12378e-07
3.07588e-07
3.03084e-07
2.99076e-07
2.94763e-07
2.88188e-07
2.81461e-07
2.77735e-07
2.74769e-07
2.69737e-07
2.63668e-07
2.56933e-07
2.49325e-07
2.41176e-07
2.34101e-07
2.27936e-07
2.21445e-07
2.12518e-07
2.00901e-07
1.90131e-07
1.83161e-07
1.72305e-07
1.57069e-07
1.36679e-07
1.10874e-07
8.29348e-08
6.61197e-08
4.76127e-08
1.51574e-08
2.59254e-09
1.76807e-09
1.7504e-08
4.74248e-08
7.09454e-08
1.08808e-07
1.13692e-07
7.17685e-08
1.1413e-07
2.40123e-07
2.15124e-07
1.92108e-07
2.60742e-07
4.6161e-07
7.41916e-07
1.26122e-06
1.88323e-06
2.6225e-06
3.08111e-06
3.03017e-06
2.6731e-06
2.18626e-06
1.58932e-06
1.06768e-06
7.02482e-07
5.00981e-07
3.91248e-07
3.46973e-07
3.43422e-07
3.76495e-07
4.42032e-07
5.47398e-07
6.64267e-07
7.291e-07
8.13549e-07
8.68064e-07
9.47138e-07
9.41823e-07
9.85566e-07
1.09684e-06
1.19206e-06
1.28798e-06
1.45728e-06
1.70819e-06
1.99494e-06
2.36435e-06
2.7678e-06
3.25715e-06
3.489e-06
3.66598e-06
3.77146e-06
3.86574e-06
3.96382e-06
4.02024e-06
4.00978e-06
3.93593e-06
3.77131e-06
3.60553e-06
3.42703e-06
3.30348e-06
3.18989e-06
3.18641e-06
3.31488e-06
3.49151e-06
3.81889e-06
4.05384e-06
4.60659e-06
4.75117e-06
4.67302e-06
4.58787e-06
7.01189e-06
5.91865e-05
0.00048863
0.000419084
1.82018e-05
6.14023e-06
1.26075e-05
1.2807e-05
1.10318e-05
8.90742e-06
7.16671e-06
5.7509e-06
4.72646e-06
3.88909e-06
3.23321e-06
2.72946e-06
2.24741e-06
1.92499e-06
1.73825e-06
1.61739e-06
1.40372e-06
1.26064e-06
1.18507e-06
1.13172e-06
1.11971e-06
1.11215e-06
1.1158e-06
1.1017e-06
1.10594e-06
1.1173e-06
1.12624e-06
1.13e-06
1.14098e-06
1.15139e-06
1.15628e-06
1.17229e-06
1.19338e-06
1.21452e-06
1.23133e-06
1.23908e-06
1.238e-06
1.22514e-06
1.20077e-06
1.16921e-06
1.13319e-06
1.09416e-06
1.05053e-06
1.00034e-06
9.49429e-07
9.03392e-07
8.6176e-07
8.21741e-07
7.82074e-07
7.42706e-07
7.05251e-07
6.73682e-07
6.50688e-07
6.37878e-07
6.36593e-07
6.44942e-07
6.54557e-07
6.55242e-07
6.45801e-07
6.30557e-07
6.135e-07
5.95059e-07
5.75042e-07
5.53277e-07
5.31474e-07
5.10726e-07
4.91982e-07
4.77925e-07
4.6396e-07
4.67804e-07
4.48529e-07
4.42526e-07
4.32114e-07
4.15717e-07
3.92047e-07
3.74742e-07
3.60015e-07
2.78076e-07
2.20638e-07
1.66517e-07
1.2888e-07
1.35946e-07
1.55201e-07
2.20075e-07
3.14645e-07
4.69791e-07
7.34896e-07
9.56541e-07
8.40627e-07
7.43332e-07
6.21608e-07
4.27165e-07
3.8013e-07
3.06993e-07
2.92559e-07
2.86983e-07
2.93508e-07
3.06267e-07
3.27067e-07
3.49265e-07
3.74235e-07
3.96673e-07
4.22231e-07
4.50806e-07
4.84328e-07
5.24477e-07
5.73083e-07
6.26293e-07
6.73736e-07
6.97998e-07
6.7527e-07
6.59141e-07
6.59027e-07
6.75125e-07
6.97817e-07
6.73518e-07
6.26067e-07
5.72867e-07
5.24274e-07
4.84141e-07
4.50632e-07
4.22078e-07
3.96555e-07
3.74123e-07
3.4924e-07
3.26929e-07
3.05459e-07
2.91337e-07
2.85854e-07
2.94098e-07
3.16876e-07
4.17722e-07
4.77509e-07
6.7267e-07
8.29803e-07
9.49562e-07
1.08695e-06
1.21006e-06
1.23527e-06
1.25138e-06
1.1741e-06
1.04698e-06
9.45265e-07
8.75348e-07
8.48484e-07
7.71517e-07
7.28497e-07
6.88652e-07
6.39528e-07
5.98648e-07
5.63611e-07
5.31606e-07
5.00993e-07
4.74187e-07
4.48553e-07
4.26473e-07
4.07202e-07
3.88884e-07
3.6874e-07
3.52276e-07
3.36064e-07
3.18138e-07
3.03194e-07
2.91982e-07
2.78999e-07
2.62731e-07
2.52663e-07
2.46343e-07
2.36645e-07
2.29765e-07
2.19185e-07
2.08796e-07
2.01354e-07
1.93171e-07
1.8417e-07
1.77318e-07
1.74144e-07
1.68546e-07
1.65446e-07
1.59766e-07
1.59132e-07
1.55171e-07
1.52468e-07
1.50919e-07
1.46375e-07
1.42857e-07
1.41924e-07
1.37947e-07
1.36304e-07
1.35371e-07
1.29889e-07
1.28202e-07
1.27272e-07
1.26657e-07
1.25738e-07
1.20611e-07
1.20314e-07
1.20403e-07
1.18068e-07
1.18378e-07
1.20273e-07
1.22168e-07
1.20773e-07
1.20688e-07
1.21204e-07
1.2191e-07
1.24691e-07
1.2962e-07
1.3709e-07
1.44488e-07
1.55231e-07
1.68683e-07
1.86954e-07
2.14448e-07
2.3973e-07
2.27859e-07
2.3937e-07
2.51902e-07
2.90035e-07
2.94023e-07
3.08711e-07
3.22672e-07
3.45207e-07
3.72598e-07
4.12665e-07
4.47001e-07
4.78452e-07
5.96919e-07
9.06812e-07
1.0622e-06
9.94417e-07
1.00476e-06
1.05743e-06
1.17543e-06
1.20006e-06
1.2816e-06
1.16994e-06
1.27345e-06
1.17785e-06
1.11993e-06
1.1739e-06
1.0514e-06
1.08254e-06
9.3487e-07
8.52763e-07
7.15792e-07
6.74319e-07
7.90793e-07
8.80664e-07
8.66968e-07
7.74108e-07
6.00821e-07
4.73789e-07
4.42369e-07
4.23605e-07
4.17501e-07
4.11526e-07
4.06873e-07
4.02308e-07
3.98804e-07
3.94386e-07
3.80248e-07
3.9185e-07
3.81207e-07
3.62823e-07
3.59188e-07
3.544e-07
3.47779e-07
3.40369e-07
3.30209e-07
3.18475e-07
3.08591e-07
2.99321e-07
2.9023e-07
2.82076e-07
2.74429e-07
2.66368e-07
2.57722e-07
2.48862e-07
2.41011e-07
2.33811e-07
2.25645e-07
2.1596e-07
2.0599e-07
1.95341e-07
1.82223e-07
1.67762e-07
1.49546e-07
1.27468e-07
1.05274e-07
7.94576e-08
5.89012e-08
3.81545e-08
1.51173e-08
4.45017e-09
1.33769e-09
1.1032e-08
3.03742e-08
4.85045e-08
7.59654e-08
7.7722e-08
6.59088e-08
1.12765e-07
4.65887e-07
7.29738e-07
7.46561e-07
8.8093e-07
1.01768e-06
1.58584e-06
2.53496e-06
3.64406e-06
4.65919e-06
5.0019e-06
4.97116e-06
4.63838e-06
4.04517e-06
3.30258e-06
2.52589e-06
1.88599e-06
1.43918e-06
1.11864e-06
9.01138e-07
7.42644e-07
6.53212e-07
6.28892e-07
7.0505e-07
8.68695e-07
1.04628e-06
1.24106e-06
1.37804e-06
1.50501e-06
1.55626e-06
1.6491e-06
1.75386e-06
1.79336e-06
1.79792e-06
1.85744e-06
1.96512e-06
2.09941e-06
2.30365e-06
2.53164e-06
2.79804e-06
2.87684e-06
2.9816e-06
3.08029e-06
3.10975e-06
3.18239e-06
3.19001e-06
3.1714e-06
3.12361e-06
3.06154e-06
3.00087e-06
2.97983e-06
2.96878e-06
3.0065e-06
3.12519e-06
3.38517e-06
3.66701e-06
4.08897e-06
4.54587e-06
5.12874e-06
5.36974e-06
5.46756e-06
5.40377e-06
8.30528e-06
6.13992e-05
0.000507531
0.00055225
3.8987e-05
4.33857e-06
1.16408e-05
1.27584e-05
1.13694e-05
9.35588e-06
7.6381e-06
6.21906e-06
5.20318e-06
4.35628e-06
3.72416e-06
3.15416e-06
2.6055e-06
2.3199e-06
2.0991e-06
1.92254e-06
1.68858e-06
1.61792e-06
1.51695e-06
1.41595e-06
1.38108e-06
1.38285e-06
1.39362e-06
1.35402e-06
1.33501e-06
1.33164e-06
1.33031e-06
1.31795e-06
1.30945e-06
1.30232e-06
1.2935e-06
1.29785e-06
1.30812e-06
1.3192e-06
1.32588e-06
1.32421e-06
1.31511e-06
1.29428e-06
1.26142e-06
1.22217e-06
1.1793e-06
1.13344e-06
1.08285e-06
1.02677e-06
9.7137e-07
9.20729e-07
8.73889e-07
8.29448e-07
7.8737e-07
7.47979e-07
7.11893e-07
6.81644e-07
6.60072e-07
6.49378e-07
6.50784e-07
6.6114e-07
6.73178e-07
6.78213e-07
6.73531e-07
6.61611e-07
6.46406e-07
6.2876e-07
6.09689e-07
5.90075e-07
5.70436e-07
5.51701e-07
5.34079e-07
5.21368e-07
5.12012e-07
5.13586e-07
5.08287e-07
5.0566e-07
5.04327e-07
5.10353e-07
5.1018e-07
4.60777e-07
4.25787e-07
4.05576e-07
3.20093e-07
2.73693e-07
2.64513e-07
2.39616e-07
2.41236e-07
1.96155e-07
1.94778e-07
2.56108e-07
3.8247e-07
7.23224e-07
8.23284e-07
7.19009e-07
6.21074e-07
4.3108e-07
3.8512e-07
3.1269e-07
2.97253e-07
2.8847e-07
2.94271e-07
3.06561e-07
3.2713e-07
3.49279e-07
3.74263e-07
3.96707e-07
4.22274e-07
4.50848e-07
4.84379e-07
5.24539e-07
5.73157e-07
6.26322e-07
6.73795e-07
6.98045e-07
6.75307e-07
6.59166e-07
6.59007e-07
6.75092e-07
6.97775e-07
6.73477e-07
6.25974e-07
5.72845e-07
5.2423e-07
4.84092e-07
4.5059e-07
4.22042e-07
3.96528e-07
3.74098e-07
3.49229e-07
3.26909e-07
3.0532e-07
2.90903e-07
2.85515e-07
2.94247e-07
3.19789e-07
4.27848e-07
4.93505e-07
6.82007e-07
8.42559e-07
9.63364e-07
1.0983e-06
1.23233e-06
1.28613e-06
1.30184e-06
1.21568e-06
1.09619e-06
1.00382e-06
9.19926e-07
8.59761e-07
7.89535e-07
7.50049e-07
7.09491e-07
6.6678e-07
6.28085e-07
5.92908e-07
5.59932e-07
5.2898e-07
5.02047e-07
4.76233e-07
4.54112e-07
4.33117e-07
4.13331e-07
3.92908e-07
3.74689e-07
3.5699e-07
3.39042e-07
3.23266e-07
3.10776e-07
2.97731e-07
2.80994e-07
2.68783e-07
2.59629e-07
2.49717e-07
2.43678e-07
2.32708e-07
2.21559e-07
2.13421e-07
2.04223e-07
1.94673e-07
1.87324e-07
1.83196e-07
1.7613e-07
1.72618e-07
1.68346e-07
1.66154e-07
1.62148e-07
1.59177e-07
1.57124e-07
1.52072e-07
1.48578e-07
1.47312e-07
1.42916e-07
1.41277e-07
1.3996e-07
1.33847e-07
1.32082e-07
1.31578e-07
1.31725e-07
1.31782e-07
1.26923e-07
1.26488e-07
1.26276e-07
1.23254e-07
1.23419e-07
1.25139e-07
1.25527e-07
1.21861e-07
1.21155e-07
1.23999e-07
1.26144e-07
1.27904e-07
1.30095e-07
1.33852e-07
1.37504e-07
1.44025e-07
1.54009e-07
1.69017e-07
1.934e-07
2.231e-07
2.32602e-07
2.55624e-07
2.75023e-07
3.25124e-07
3.15174e-07
3.43905e-07
3.58937e-07
3.85058e-07
4.13464e-07
4.61423e-07
5.18077e-07
5.92525e-07
7.61934e-07
1.05192e-06
1.09552e-06
1.15046e-06
1.30603e-06
1.42513e-06
1.51548e-06
1.54625e-06
1.61341e-06
1.44437e-06
1.6205e-06
1.43175e-06
1.41563e-06
1.45434e-06
1.25915e-06
1.31145e-06
1.04321e-06
9.6037e-07
8.089e-07
7.55866e-07
8.25255e-07
8.80754e-07
8.41796e-07
7.50137e-07
6.06871e-07
5.03035e-07
4.8177e-07
4.64872e-07
4.5902e-07
4.51453e-07
4.46799e-07
4.42547e-07
4.39555e-07
4.31388e-07
4.19919e-07
4.21178e-07
4.09013e-07
3.94462e-07
3.89905e-07
3.84042e-07
3.75216e-07
3.63608e-07
3.49034e-07
3.32867e-07
3.19292e-07
3.08096e-07
3.00125e-07
2.92944e-07
2.8448e-07
2.75244e-07
2.65428e-07
2.55854e-07
2.46913e-07
2.36876e-07
2.28844e-07
2.19096e-07
2.08927e-07
1.95478e-07
1.79356e-07
1.64427e-07
1.45998e-07
1.25181e-07
1.01517e-07
7.78584e-08
5.62193e-08
3.6149e-08
1.67719e-08
5.42777e-09
1.56744e-09
5.60777e-09
1.83335e-08
3.22386e-08
5.35817e-08
6.24868e-08
6.39499e-08
1.37977e-07
6.33287e-07
1.11904e-06
9.91224e-07
1.22791e-06
1.35251e-06
1.8741e-06
2.78055e-06
3.6348e-06
4.44486e-06
4.73637e-06
4.85224e-06
4.70052e-06
4.30741e-06
3.78294e-06
3.16592e-06
2.55258e-06
2.0336e-06
1.61179e-06
1.2749e-06
1.02198e-06
8.48906e-07
7.63433e-07
8.17756e-07
1.01195e-06
1.28461e-06
1.58812e-06
1.86402e-06
2.11574e-06
2.28862e-06
2.45999e-06
2.55038e-06
2.57005e-06
2.54579e-06
2.54212e-06
2.56444e-06
2.61596e-06
2.72854e-06
2.86968e-06
3.0371e-06
3.08091e-06
3.1964e-06
3.3006e-06
3.33773e-06
3.39476e-06
3.40617e-06
3.43349e-06
3.44453e-06
3.4643e-06
3.49918e-06
3.57516e-06
3.65528e-06
3.77859e-06
3.99906e-06
4.32444e-06
4.72633e-06
5.177e-06
5.84311e-06
6.51299e-06
6.7812e-06
7.03244e-06
6.9586e-06
1.00024e-05
6.18101e-05
0.000502349
0.000583941
6.25523e-05
2.57127e-06
9.10815e-06
1.13076e-05
1.05832e-05
8.96464e-06
7.52171e-06
6.28447e-06
5.40358e-06
4.64943e-06
4.00834e-06
3.41767e-06
2.86853e-06
2.52465e-06
2.31067e-06
2.15913e-06
1.90034e-06
1.73651e-06
1.58417e-06
1.50012e-06
1.45983e-06
1.43645e-06
1.4289e-06
1.39273e-06
1.37786e-06
1.36996e-06
1.36011e-06
1.34221e-06
1.3316e-06
1.32737e-06
1.32311e-06
1.33122e-06
1.34453e-06
1.35816e-06
1.36625e-06
1.36394e-06
1.35276e-06
1.32812e-06
1.28936e-06
1.2432e-06
1.19323e-06
1.14056e-06
1.08357e-06
1.02223e-06
9.63022e-07
9.08827e-07
8.58425e-07
8.11402e-07
7.68117e-07
7.28382e-07
6.92926e-07
6.63726e-07
6.4317e-07
6.33513e-07
6.3564e-07
6.46018e-07
6.57622e-07
6.63392e-07
6.60646e-07
6.50676e-07
6.37247e-07
6.21242e-07
6.03742e-07
5.85753e-07
5.6772e-07
5.5051e-07
5.3383e-07
5.19595e-07
5.0818e-07
5.04857e-07
5.05937e-07
5.01682e-07
4.91129e-07
4.81759e-07
4.7821e-07
4.51341e-07
3.93e-07
3.56392e-07
2.95716e-07
2.77837e-07
2.82783e-07
2.65594e-07
2.55998e-07
2.63213e-07
2.33519e-07
1.91368e-07
2.12752e-07
4.07388e-07
7.17403e-07
6.49274e-07
5.51814e-07
4.18953e-07
3.79352e-07
3.13004e-07
2.98324e-07
2.88435e-07
2.94776e-07
3.06795e-07
3.27192e-07
3.49291e-07
3.74293e-07
3.96735e-07
4.22308e-07
4.50893e-07
4.84419e-07
5.24586e-07
5.73209e-07
6.26363e-07
6.73852e-07
6.98093e-07
6.7534e-07
6.59194e-07
6.58973e-07
6.75057e-07
6.97732e-07
6.73446e-07
6.2595e-07
5.72756e-07
5.24176e-07
4.84048e-07
4.50547e-07
4.22004e-07
3.965e-07
3.74071e-07
3.49234e-07
3.26898e-07
3.0519e-07
2.90425e-07
2.84998e-07
2.93602e-07
3.20733e-07
4.34075e-07
5.05741e-07
6.76862e-07
8.38494e-07
9.73273e-07
1.10976e-06
1.24849e-06
1.32675e-06
1.33948e-06
1.24573e-06
1.14126e-06
1.05209e-06
9.57997e-07
8.81885e-07
8.18669e-07
7.8199e-07
7.4055e-07
7.027e-07
6.63783e-07
6.28592e-07
5.95341e-07
5.647e-07
5.37307e-07
5.10903e-07
4.87446e-07
4.64093e-07
4.42143e-07
4.20388e-07
4.01168e-07
3.82167e-07
3.64256e-07
3.49181e-07
3.3513e-07
3.19437e-07
3.02709e-07
2.90501e-07
2.81647e-07
2.71339e-07
2.62628e-07
2.50153e-07
2.39715e-07
2.3206e-07
2.21401e-07
2.12345e-07
2.06331e-07
2.01833e-07
1.94119e-07
1.90855e-07
1.88651e-07
1.86429e-07
1.83022e-07
1.8143e-07
1.79788e-07
1.74907e-07
1.72127e-07
1.70962e-07
1.6643e-07
1.65603e-07
1.64128e-07
1.57389e-07
1.56877e-07
1.57599e-07
1.59237e-07
1.60031e-07
1.54212e-07
1.54694e-07
1.54135e-07
1.50924e-07
1.53333e-07
1.58023e-07
1.59173e-07
1.49673e-07
1.44711e-07
1.48023e-07
1.52889e-07
1.57375e-07
1.63053e-07
1.70598e-07
1.76529e-07
1.85624e-07
1.97921e-07
2.1632e-07
2.489e-07
2.95052e-07
2.92535e-07
3.06296e-07
3.20597e-07
3.92788e-07
3.85788e-07
4.15048e-07
4.25603e-07
4.50586e-07
4.84339e-07
5.45763e-07
6.26569e-07
7.34353e-07
9.11209e-07
1.04037e-06
1.1841e-06
1.47407e-06
1.68535e-06
1.84989e-06
1.92146e-06
1.94158e-06
1.99228e-06
1.77142e-06
1.96868e-06
1.71978e-06
1.68852e-06
1.74924e-06
1.48944e-06
1.5349e-06
1.18444e-06
1.04797e-06
8.60017e-07
8.06917e-07
8.33047e-07
8.16566e-07
7.30361e-07
6.81909e-07
6.32626e-07
5.85296e-07
5.55436e-07
5.33304e-07
5.35281e-07
5.27246e-07
5.2443e-07
5.21733e-07
5.16637e-07
4.99795e-07
4.8106e-07
4.8813e-07
4.73334e-07
4.47108e-07
4.39037e-07
4.30999e-07
4.17412e-07
3.99786e-07
3.77066e-07
3.55138e-07
3.3887e-07
3.23994e-07
3.12597e-07
3.02043e-07
2.91091e-07
2.80212e-07
2.70026e-07
2.59289e-07
2.49707e-07
2.40392e-07
2.32114e-07
2.20382e-07
2.07083e-07
1.91875e-07
1.76237e-07
1.6117e-07
1.42279e-07
1.21399e-07
9.64902e-08
7.63442e-08
5.67525e-08
3.82028e-08
1.9771e-08
7.07359e-09
2.1115e-09
3.1469e-09
1.1433e-08
2.37071e-08
3.96202e-08
4.87113e-08
6.10751e-08
1.20485e-07
5.15452e-07
1.24591e-06
1.41058e-06
1.803e-06
1.84949e-06
2.34792e-06
3.24398e-06
4.10085e-06
4.84376e-06
4.96798e-06
4.88985e-06
4.63031e-06
4.15929e-06
3.58825e-06
3.00048e-06
2.49211e-06
2.10365e-06
1.75982e-06
1.43992e-06
1.17291e-06
9.63089e-07
8.46447e-07
8.9786e-07
1.14201e-06
1.51715e-06
1.94396e-06
2.38299e-06
2.7769e-06
3.09669e-06
3.39066e-06
3.47632e-06
3.43146e-06
3.35911e-06
3.30076e-06
3.2668e-06
3.27626e-06
3.349e-06
3.47317e-06
3.61593e-06
3.71314e-06
3.97567e-06
4.12269e-06
4.21633e-06
4.27443e-06
4.28612e-06
4.35937e-06
4.44537e-06
4.52912e-06
4.6675e-06
4.80354e-06
4.96907e-06
5.1381e-06
5.45199e-06
5.81368e-06
6.30501e-06
6.77926e-06
7.62785e-06
8.32065e-06
8.6505e-06
9.08925e-06
8.95542e-06
1.19298e-05
6.09357e-05
0.000492584
0.000570599
7.29293e-05
2.50513e-06
5.85442e-06
8.8925e-06
9.11258e-06
8.2095e-06
7.24443e-06
6.37408e-06
5.7406e-06
5.06986e-06
4.47256e-06
3.91978e-06
3.40612e-06
3.10384e-06
2.84956e-06
2.67499e-06
2.39642e-06
2.24816e-06
2.06991e-06
1.95627e-06
1.9039e-06
1.88809e-06
1.89522e-06
1.84713e-06
1.81883e-06
1.79631e-06
1.76843e-06
1.72475e-06
1.68691e-06
1.65406e-06
1.62145e-06
1.60462e-06
1.59339e-06
1.58194e-06
1.56365e-06
1.53427e-06
1.49701e-06
1.44855e-06
1.38856e-06
1.32328e-06
1.25627e-06
1.18826e-06
1.11792e-06
1.04603e-06
9.78341e-07
9.16385e-07
8.58036e-07
8.03667e-07
7.5533e-07
7.12696e-07
6.75887e-07
6.46008e-07
6.24825e-07
6.14747e-07
6.16541e-07
6.26539e-07
6.3811e-07
6.44979e-07
6.44409e-07
6.36531e-07
6.23805e-07
6.07252e-07
5.88517e-07
5.69037e-07
5.49073e-07
5.29239e-07
5.11044e-07
4.96096e-07
4.80049e-07
4.69845e-07
4.64854e-07
4.61684e-07
4.52901e-07
4.39794e-07
4.24003e-07
4.09922e-07
3.58749e-07
3.33888e-07
3.26503e-07
3.11114e-07
2.52524e-07
2.79728e-07
2.97513e-07
2.73624e-07
2.90209e-07
2.91573e-07
1.73793e-07
2.00956e-07
5.07168e-07
7.1235e-07
5.95659e-07
4.30345e-07
3.75906e-07
3.12219e-07
2.9915e-07
2.88346e-07
2.95338e-07
3.07094e-07
3.27261e-07
3.49305e-07
3.74322e-07
3.96765e-07
4.22349e-07
4.50933e-07
4.84472e-07
5.2463e-07
5.73268e-07
6.26436e-07
6.73906e-07
6.98136e-07
6.75376e-07
6.59219e-07
6.58957e-07
6.7502e-07
6.97688e-07
6.73365e-07
6.25875e-07
5.72724e-07
5.24128e-07
4.84e-07
4.50505e-07
4.21966e-07
3.96469e-07
3.74046e-07
3.49225e-07
3.26891e-07
3.05061e-07
2.8996e-07
2.84416e-07
2.92726e-07
3.19775e-07
4.37175e-07
5.14885e-07
6.64727e-07
8.25365e-07
9.76765e-07
1.11854e-06
1.26282e-06
1.35638e-06
1.36792e-06
1.28343e-06
1.19635e-06
1.1124e-06
1.01988e-06
9.41542e-07
8.79692e-07
8.39518e-07
7.97273e-07
7.581e-07
7.18132e-07
6.81551e-07
6.47144e-07
6.1559e-07
5.8672e-07
5.58486e-07
5.32735e-07
5.06782e-07
4.82776e-07
4.59692e-07
4.39017e-07
4.19285e-07
4.00523e-07
3.83346e-07
3.67122e-07
3.50279e-07
3.3297e-07
3.21278e-07
3.117e-07
3.0026e-07
2.89959e-07
2.76884e-07
2.66726e-07
2.58936e-07
2.47523e-07
2.39322e-07
2.33577e-07
2.29062e-07
2.21874e-07
2.19386e-07
2.1917e-07
2.17433e-07
2.1534e-07
2.14731e-07
2.13058e-07
2.08741e-07
2.06925e-07
2.05552e-07
2.00973e-07
2.00586e-07
1.98549e-07
1.91582e-07
1.92964e-07
1.96246e-07
2.0093e-07
2.03185e-07
1.9566e-07
1.96023e-07
1.95468e-07
1.93314e-07
1.99973e-07
2.09924e-07
2.12976e-07
1.9599e-07
1.8253e-07
1.83588e-07
1.89163e-07
1.94526e-07
2.03402e-07
2.10412e-07
2.11609e-07
2.16378e-07
2.26851e-07
2.45541e-07
2.76636e-07
3.16729e-07
3.13145e-07
3.34317e-07
3.65334e-07
4.14962e-07
3.9898e-07
4.53347e-07
4.63393e-07
4.89927e-07
5.2533e-07
5.80482e-07
6.63584e-07
7.69731e-07
8.92484e-07
9.79786e-07
1.2973e-06
1.71532e-06
1.95774e-06
2.11871e-06
2.17977e-06
2.19083e-06
2.22547e-06
1.97005e-06
2.19098e-06
1.89826e-06
1.87665e-06
1.93268e-06
1.63338e-06
1.67028e-06
1.26377e-06
1.09868e-06
8.90118e-07
8.50313e-07
8.38129e-07
7.78549e-07
6.67405e-07
6.485e-07
6.45825e-07
6.25674e-07
5.95673e-07
5.75243e-07
5.72438e-07
5.6238e-07
5.56097e-07
5.5036e-07
5.40754e-07
5.21986e-07
5.05759e-07
5.02077e-07
4.85433e-07
4.62487e-07
4.53561e-07
4.45359e-07
4.31307e-07
4.11725e-07
3.85915e-07
3.61617e-07
3.4199e-07
3.25717e-07
3.14453e-07
3.04105e-07
2.93154e-07
2.82299e-07
2.72171e-07
2.61113e-07
2.51053e-07
2.42338e-07
2.31935e-07
2.17947e-07
2.03583e-07
1.87871e-07
1.73418e-07
1.5669e-07
1.37796e-07
1.15191e-07
9.42561e-08
7.51785e-08
5.60267e-08
4.00985e-08
2.14182e-08
9.05357e-09
2.86895e-09
1.84512e-09
6.25575e-09
1.55673e-08
2.90099e-08
3.78064e-08
5.53761e-08
1.18144e-07
3.77814e-07
1.0705e-06
1.3569e-06
1.80545e-06
1.92204e-06
2.3956e-06
3.30047e-06
4.08017e-06
4.71739e-06
4.68202e-06
4.49478e-06
4.21562e-06
3.73594e-06
3.14078e-06
2.54854e-06
2.05924e-06
1.71049e-06
1.44645e-06
1.22388e-06
1.03699e-06
8.77026e-07
7.85019e-07
8.51397e-07
1.11581e-06
1.52299e-06
1.99141e-06
2.48272e-06
2.92512e-06
3.29404e-06
3.61414e-06
3.71698e-06
3.68242e-06
3.62461e-06
3.57564e-06
3.55009e-06
3.57448e-06
3.66635e-06
3.82379e-06
4.01122e-06
4.19154e-06
4.55558e-06
4.76077e-06
4.90268e-06
4.98323e-06
5.0227e-06
5.15262e-06
5.30046e-06
5.44261e-06
5.64089e-06
5.82387e-06
6.03912e-06
6.25219e-06
6.62453e-06
7.02848e-06
7.59269e-06
8.10684e-06
9.09225e-06
9.81109e-06
1.02188e-05
1.07643e-05
1.05839e-05
1.33603e-05
5.86567e-05
0.000483989
0.000579298
6.86757e-05
2.55697e-06
3.4688e-06
6.15659e-06
6.88229e-06
6.7105e-06
6.37691e-06
6.03729e-06
5.77556e-06
5.34643e-06
4.88966e-06
4.45396e-06
4.07304e-06
3.84254e-06
3.527e-06
3.36262e-06
3.14902e-06
3.00181e-06
2.70473e-06
2.55063e-06
2.51427e-06
2.53433e-06
2.537e-06
2.44815e-06
2.40025e-06
2.36312e-06
2.30976e-06
2.22522e-06
2.14205e-06
2.07203e-06
2.00561e-06
1.95675e-06
1.91479e-06
1.87484e-06
1.83099e-06
1.77718e-06
1.71576e-06
1.64424e-06
1.56216e-06
1.47581e-06
1.38949e-06
1.30449e-06
1.21974e-06
1.13384e-06
1.05119e-06
9.73691e-07
9.00717e-07
8.35212e-07
7.79707e-07
7.33301e-07
6.94998e-07
6.64548e-07
6.43426e-07
6.33566e-07
6.35474e-07
6.45475e-07
6.57403e-07
6.65469e-07
6.67439e-07
6.63002e-07
6.53079e-07
6.37957e-07
6.19918e-07
6.00361e-07
5.80286e-07
5.60574e-07
5.42673e-07
5.27944e-07
5.10305e-07
4.99111e-07
4.93599e-07
4.9163e-07
4.88144e-07
4.83627e-07
4.72809e-07
4.44299e-07
3.98244e-07
3.66614e-07
3.36982e-07
3.05363e-07
2.81647e-07
3.00388e-07
3.17747e-07
3.07675e-07
2.67878e-07
3.06727e-07
2.65515e-07
1.54189e-07
2.38025e-07
6.29038e-07
5.88881e-07
4.53175e-07
3.82887e-07
3.14391e-07
3.01407e-07
2.89059e-07
2.9597e-07
3.07421e-07
3.27345e-07
3.49323e-07
3.74352e-07
3.96795e-07
4.22386e-07
4.50978e-07
4.84511e-07
5.24697e-07
5.73307e-07
6.2649e-07
6.73961e-07
6.98158e-07
6.75413e-07
6.59252e-07
6.58917e-07
6.74982e-07
6.9764e-07
6.73351e-07
6.25807e-07
5.72672e-07
5.24071e-07
4.83954e-07
4.5046e-07
4.21926e-07
3.9644e-07
3.74018e-07
3.49231e-07
3.26884e-07
3.04949e-07
2.89503e-07
2.83827e-07
2.91271e-07
3.173e-07
4.35799e-07
5.19932e-07
6.52592e-07
8.09995e-07
9.74393e-07
1.12685e-06
1.27787e-06
1.37958e-06
1.38815e-06
1.32142e-06
1.25717e-06
1.18376e-06
1.09853e-06
1.02309e-06
9.63592e-07
9.17043e-07
8.70943e-07
8.29249e-07
7.87126e-07
7.49692e-07
7.13301e-07
6.79809e-07
6.48157e-07
6.17668e-07
5.8936e-07
5.61754e-07
5.36418e-07
5.11801e-07
4.89845e-07
4.68445e-07
4.48325e-07
4.29369e-07
4.10683e-07
3.93056e-07
3.76463e-07
3.63966e-07
3.5373e-07
3.39769e-07
3.26849e-07
3.14157e-07
3.04446e-07
2.97065e-07
2.85591e-07
2.78333e-07
2.72894e-07
2.69083e-07
2.63359e-07
2.62552e-07
2.64144e-07
2.63496e-07
2.62878e-07
2.63373e-07
2.62259e-07
2.58628e-07
2.57263e-07
2.55364e-07
2.50632e-07
2.50472e-07
2.4777e-07
2.41339e-07
2.46233e-07
2.54368e-07
2.65064e-07
2.70551e-07
2.61436e-07
2.61196e-07
2.59736e-07
2.57936e-07
2.67142e-07
2.81631e-07
2.89255e-07
2.67694e-07
2.41822e-07
2.30583e-07
2.33188e-07
2.42173e-07
2.57726e-07
2.7228e-07
2.85527e-07
3.02265e-07
3.19254e-07
3.33636e-07
3.53681e-07
3.75362e-07
3.61857e-07
4.01413e-07
4.14307e-07
4.58104e-07
4.62866e-07
4.97691e-07
5.10493e-07
5.33721e-07
5.72308e-07
6.37925e-07
7.2679e-07
8.32819e-07
9.48793e-07
1.05428e-06
1.46318e-06
1.94446e-06
2.20086e-06
2.3454e-06
2.40071e-06
2.38727e-06
2.39761e-06
2.12643e-06
2.32489e-06
2.02849e-06
1.99204e-06
2.03696e-06
1.73236e-06
1.74722e-06
1.33243e-06
1.14378e-06
9.15678e-07
8.83434e-07
8.36753e-07
7.66403e-07
6.68591e-07
6.67856e-07
6.81223e-07
6.68003e-07
6.33605e-07
6.12062e-07
6.0799e-07
5.94961e-07
5.85661e-07
5.7695e-07
5.63805e-07
5.4274e-07
5.25411e-07
5.16608e-07
4.97394e-07
4.74538e-07
4.62383e-07
4.51436e-07
4.34895e-07
4.14081e-07
3.87208e-07
3.62718e-07
3.43725e-07
3.27508e-07
3.164e-07
3.07225e-07
2.96601e-07
2.84656e-07
2.72879e-07
2.61462e-07
2.50992e-07
2.40363e-07
2.27663e-07
2.13215e-07
1.98787e-07
1.83416e-07
1.69955e-07
1.5238e-07
1.30527e-07
1.1162e-07
9.26837e-08
7.41007e-08
5.54707e-08
4.03322e-08
2.29061e-08
1.14225e-08
4.22046e-09
1.90348e-09
3.96793e-09
1.12347e-08
2.26224e-08
3.27126e-08
5.62446e-08
1.2416e-07
2.91834e-07
8.46351e-07
1.26875e-06
1.80139e-06
2.07246e-06
2.5869e-06
3.50746e-06
4.2637e-06
4.82468e-06
4.67426e-06
4.28821e-06
3.92406e-06
3.43663e-06
2.84761e-06
2.24326e-06
1.74314e-06
1.40486e-06
1.16372e-06
9.72022e-07
8.31066e-07
7.18237e-07
6.6278e-07
7.44577e-07
1.00258e-06
1.39062e-06
1.83416e-06
2.30033e-06
2.71534e-06
3.06543e-06
3.37547e-06
3.47471e-06
3.45751e-06
3.43973e-06
3.42732e-06
3.43489e-06
3.488e-06
3.60551e-06
3.79163e-06
4.0115e-06
4.24361e-06
4.63553e-06
4.87001e-06
5.04174e-06
5.15058e-06
5.22336e-06
5.39691e-06
5.58499e-06
5.76984e-06
6.00408e-06
6.22938e-06
6.48022e-06
6.74305e-06
7.15294e-06