/*--------------------------------*- C++ -*----------------------------------*\
| =========                 |                                                 |
| \\      /  F ield         | OpenFOAM: The Open Source CFD Toolbox           |
|  \\    /   O peration     | Version:  v2006                                 |
|   \\  /    A nd           | Website:  www.openfoam.com                      |
|    \\/     M anipulation  |                                                 |
\*---------------------------------------------------------------------------*/
FoamFile
{
    version     2.0;
    format      ascii;
    class       volVectorField;
    location    "185";
    object      U;
}
// * * * * * * * * * * * * * * * * * * * * * * * * * * * * * * * * * * * * * //

dimensions      [0 1 -1 0 0 0 0];


internalField   nonuniform List<vector> 
93840
(
(0.864545 0.0489631 0)
(0.866865 0.046992 0)
(0.868436 0.0444901 0)
(0.869158 0.0418728 0)
(0.868958 0.0392751 0)
(0.868322 0.0368387 0)
(0.867232 0.0344399 0)
(0.866016 0.031978 0)
(0.864402 0.0294064 0)
(0.862415 0.0265632 0)
(0.859716 0.023566 0)
(0.856264 0.0204691 0)
(0.851964 0.0173665 0)
(0.846826 0.0142117 0)
(0.840654 0.0110767 0)
(0.833505 0.00824235 0)
(0.825429 0.00676804 0)
(0.815486 0.00629871 0)
(0.801477 0.00647262 0)
(0.781416 0.00767666 0)
(0.755797 0.00897035 0)
(0.725058 0.0104374 0)
(0.688742 0.0102658 0)
(0.648261 0.00801966 0)
(0.607126 0.00760162 0)
(0.568284 0.00785664 0)
(0.53403 0.00559828 0)
(0.504199 0.00319565 0)
(0.478967 0.00111857 0)
(0.459754 -0.00184899 0)
(0.445997 -0.00362513 0)
(0.431443 -0.00377258 0)
(0.47025 -0.0196884 0)
(0.482809 -0.0315677 0)
(0.479193 -0.0281605 0)
(0.477833 -0.0260465 0)
(0.474562 -0.0248019 0)
(0.47164 -0.0239873 0)
(0.467615 -0.0228603 0)
(0.463702 -0.0213871 0)
(0.460547 -0.0198596 0)
(0.457477 -0.0187145 0)
(0.454429 -0.0175448 0)
(0.451513 -0.0165296 0)
(0.448336 -0.0156941 0)
(0.444747 -0.0146344 0)
(0.441262 -0.0131452 0)
(0.438509 -0.0117032 0)
(0.435425 -0.0106888 0)
(0.432135 -0.00945067 0)
(0.429543 -0.00801059 0)
(0.427066 -0.00707739 0)
(0.423249 -0.00639533 0)
(0.418858 -0.00413114 0)
(0.417617 -0.00120753 0)
(0.416984 0.000117711 0)
(0.415679 0.000332126 0)
(0.412935 0.000800094 0)
(0.409136 0.00212523 0)
(0.406744 0.00473993 0)
(0.405333 0.00620336 0)
(0.402792 0.00702987 0)
(0.400788 0.00935197 0)
(0.400185 0.0115633 0)
(0.399389 0.0129969 0)
(0.398343 0.0148728 0)
(0.398268 0.0170767 0)
(0.398813 0.0183542 0)
(0.398646 0.0199184 0)
(0.398795 0.0214978 0)
(0.399438 0.0228895 0)
(0.399922 0.0243796 0)
(0.400823 0.0261664 0)
(0.402366 0.0277249 0)
(0.403766 0.0292855 0)
(0.405294 0.0310334 0)
(0.407208 0.0326948 0)
(0.409241 0.0345509 0)
(0.411903 0.0363947 0)
(0.41483 0.0379893 0)
(0.417691 0.0397 0)
(0.42069 0.041507 0)
(0.424026 0.0434644 0)
(0.428077 0.0453955 0)
(0.432549 0.0470344 0)
(0.436999 0.0487039 0)
(0.441652 0.0504061 0)
(0.446315 0.0521104 0)
(0.450881 0.0540537 0)
(0.455702 0.0563732 0)
(0.46139 0.0589496 0)
(0.467923 0.0612527 0)
(0.474801 0.0633847 0)
(0.482266 0.0654436 0)
(0.49026 0.0675499 0)
(0.498747 0.0693256 0)
(0.507631 0.0708546 0)
(0.516197 0.0726664 0)
(0.525433 0.0746458 0)
(0.535026 0.0766284 0)
(0.546054 0.078301 0)
(0.555743 0.0799121 0)
(0.564737 0.0822141 0)
(0.580196 0.085901 0)
(0.601515 0.0848444 0)
(0.609202 0.0824834 0)
(0.615045 0.0838265 0)
(0.625039 0.0860424 0)
(0.642579 0.0866997 0)
(0.657347 0.0868123 0)
(0.67195 0.0858803 0)
(0.685751 0.0846371 0)
(0.699714 0.0832089 0)
(0.715934 0.0818669 0)
(0.732068 0.078654 0)
(0.747422 0.0752871 0)
(0.762198 0.0716465 0)
(0.779374 0.069256 0)
(0.794672 0.0640106 0)
(0.808695 0.0581742 0)
(0.819418 0.0494958 0)
(0.834377 0.0432334 0)
(0.840943 0.0337191 0)
(0.852925 0.027593 0)
(0.851109 0.0157655 0)
(0.854687 0.00963653 0)
(0.856167 -0.00174391 0)
(0.848725 -0.0092579 0)
(0.852676 -0.0139033 0)
(0.848119 -0.0225679 0)
(0.844797 -0.0271405 0)
(0.841173 -0.0351106 0)
(0.836256 -0.0399101 0)
(0.834113 -0.0449654 0)
(0.830044 -0.0494323 0)
(0.824404 -0.0546248 0)
(0.818276 -0.0583971 0)
(0.814162 -0.0628403 0)
(0.810207 -0.0661722 0)
(0.80805 -0.070189 0)
(0.805405 -0.0743956 0)
(0.80225 -0.0787426 0)
(0.797296 -0.0819772 0)
(0.794249 -0.0853602 0)
(0.790864 -0.0890051 0)
(0.787767 -0.0927364 0)
(0.785009 -0.0967598 0)
(0.78184 -0.101148 0)
(0.777938 -0.106032 0)
(0.772935 -0.109198 0)
(0.768513 -0.113804 0)
(0.764109 -0.118583 0)
(0.75894 -0.122505 0)
(0.753214 -0.126941 0)
(0.747221 -0.131402 0)
(0.740856 -0.136012 0)
(0.733887 -0.14067 0)
(0.726242 -0.145393 0)
(0.717714 -0.149786 0)
(0.708805 -0.153566 0)
(0.700737 -0.157679 0)
(0.692384 -0.162923 0)
(0.68254 -0.168587 0)
(0.67154 -0.174037 0)
(0.659444 -0.179592 0)
(0.645722 -0.185064 0)
(0.630534 -0.18993 0)
(0.614802 -0.194295 0)
(0.598676 -0.199518 0)
(0.580116 -0.20606 0)
(0.55807 -0.211792 0)
(0.533317 -0.215516 0)
(0.507431 -0.217681 0)
(0.479867 -0.220812 0)
(0.44636 -0.224842 0)
(0.408465 -0.225428 0)
(0.367579 -0.218953 0)
(0.315957 -0.207139 0)
(0.252923 -0.177988 0)
(0.176619 -0.136531 0)
(0.0939683 -0.0716896 0)
(0.017017 0.0547069 0)
(-0.0015186 0.200114 0)
(0.0123633 0.374576 0)
(0.104858 0.525637 0)
(0.210849 0.648245 0)
(0.368313 0.730505 0)
(0.544209 0.744614 0)
(0.699884 0.681818 0)
(0.761571 0.644872 0)
(0.85142 0.647924 0)
(0.944016 0.626363 0)
(1.01203 0.590593 0)
(1.06056 0.551046 0)
(1.1065 0.516708 0)
(1.12919 0.488189 0)
(1.1462 0.459694 0)
(1.15953 0.424602 0)
(1.16598 0.395046 0)
(1.16889 0.382075 0)
(1.16725 0.369329 0)
(1.16597 0.342824 0)
(1.16489 0.31934 0)
(1.1614 0.309297 0)
(1.15848 0.29886 0)
(1.15307 0.284328 0)
(1.14757 0.269297 0)
(1.14292 0.258537 0)
(1.13746 0.250036 0)
(1.13275 0.238999 0)
(1.13037 0.227549 0)
(1.12763 0.218899 0)
(1.12421 0.20976 0)
(1.12216 0.199358 0)
(1.12002 0.1916 0)
(1.11457 0.184001 0)
(1.10947 0.17723 0)
(1.10585 0.170902 0)
(1.1008 0.1623 0)
(1.0965 0.15249 0)
(1.09746 0.144081 0)
(1.09664 0.138217 0)
(1.09489 0.132754 0)
(1.0942 0.125754 0)
(1.09087 0.121177 0)
(1.08331 0.116799 0)
(1.07595 0.109691 0)
(1.07033 0.104478 0)
(1.06509 0.101728 0)
(1.06006 0.0971803 0)
(1.06005 0.0911721 0)
(1.06718 0.0844072 0)
(1.06491 0.0778148 0)
(1.06015 0.0701747 0)
(1.05374 0.0653977 0)
(1.04666 0.0624526 0)
(1.04198 0.0585863 0)
(1.03882 0.0515183 0)
(1.03597 0.0460253 0)
(1.03531 0.04227 0)
(1.0376 0.0401055 0)
(1.03987 0.0362341 0)
(1.03441 0.03167 0)
(1.02955 0.0243127 0)
(1.02349 0.0180754 0)
(1.02021 0.0121296 0)
(1.01421 0.0104641 0)
(1.01684 0.00496367 0)
(1.00394 0.00234941 0)
(1.00188 -0.00364548 0)
(1.01255 -0.0140706 0)
(1.00514 -0.0149109 0)
(1.00902 -0.0189342 0)
(1.00379 -0.0256782 0)
(1.00615 -0.0323564 0)
(0.901354 -0.0300698 0)
(0.668807 -0.0218591 0)
(0.541357 -0.0227941 0)
(0.509842 -0.027305 0)
(0.509112 -0.031113 0)
(0.512924 -0.0345166 0)
(0.516111 -0.0371261 0)
(0.516834 -0.0393255 0)
(0.514281 -0.0407147 0)
(0.506865 -0.0429903 0)
(0.498799 -0.0435533 0)
(0.487692 -0.0452816 0)
(0.474451 -0.0481924 0)
(0.453823 -0.0500304 0)
(0.439987 -0.0470392 0)
(0.435246 -0.0458977 0)
(0.42985 -0.0478258 0)
(0.414251 -0.0501872 0)
(0.3953 -0.047938 0)
(0.38776 -0.0455515 0)
(0.380069 -0.0455996 0)
(0.367622 -0.046774 0)
(0.351793 -0.0464437 0)
(0.334101 -0.0438649 0)
(0.320064 -0.0419562 0)
(0.30652 -0.0414129 0)
(0.292821 -0.0404955 0)
(0.279179 -0.0391785 0)
(0.265749 -0.0381327 0)
(0.25194 -0.037087 0)
(0.237325 -0.0357445 0)
(0.223234 -0.0344162 0)
(0.209799 -0.0328074 0)
(0.196731 -0.0309902 0)
(0.183837 -0.029224 0)
(0.171258 -0.0275375 0)
(0.159199 -0.0257909 0)
(0.147616 -0.0238169 0)
(0.136356 -0.021783 0)
(0.1254 -0.0198536 0)
(0.114678 -0.0182095 0)
(0.104041 -0.0166813 0)
(0.0935491 -0.0148358 0)
(0.0833296 -0.012766 0)
(0.0736051 -0.010848 0)
(0.0643445 -0.00910608 0)
(0.0553291 -0.00768698 0)
(0.0463046 -0.00643818 0)
(0.0373973 -0.00527297 0)
(0.0291182 -0.00428542 0)
(0.0223346 -0.00359294 0)
(0.0176158 -0.00310273 0)
(0.0149769 -0.00253047 0)
(0.0136615 -0.00202614 0)
(0.0127973 -0.00182899 0)
(0.0121026 -0.00201846 0)
(0.0113937 -0.00232388 0)
(0.0106423 -0.00233517 0)
(0.00984254 -0.00210946 0)
(0.00915397 -0.00180089 0)
(0.00883233 -0.00158889 0)
(0.00857408 -0.00159416 0)
(0.00815269 -0.00165493 0)
(0.00767332 -0.00156322 0)
(0.00727004 -0.00138098 0)
(0.00703739 -0.00127134 0)
(0.00688236 -0.00130909 0)
(0.00665675 -0.00145668 0)
(0.00647613 -0.00165386 0)
(0.00639653 -0.00182546 0)
(0.00645477 -0.00199103 0)
(0.00678881 -0.00207768 0)
(0.00769518 -0.00249787 0)
(0.0101202 -0.00356041 0)
(0.0152844 -0.00541824 0)
(0.0236266 -0.00830659 0)
(0.0355428 -0.013124 0)
(0.0534277 -0.0216219 0)
(0.0738235 -0.0401643 0)
(0.106155 -0.0539452 0)
(0.130047 -0.0624563 0)
(0.223109 -4.19265e-05 0)
(0.296325 0.0111817 0)
(0.345515 0.0094292 0)
(0.389046 0.00642216 0)
(0.433397 0.00558578 0)
(0.478034 0.00601889 0)
(0.524187 0.00742014 0)
(0.573715 0.00909135 0)
(0.624127 0.0084162 0)
(0.672178 0.00942479 0)
(0.714785 0.011265 0)
(0.749687 0.0089803 0)
(0.778232 0.00639493 0)
(0.800061 0.0058323 0)
(0.814995 0.00593732 0)
(0.825438 0.00695086 0)
(0.833529 0.00821248 0)
(0.840696 0.0110545 0)
(0.846856 0.0141948 0)
(0.851984 0.0173596 0)
(0.856279 0.020471 0)
(0.859727 0.0235639 0)
(0.862422 0.0265618 0)
(0.864407 0.0294067 0)
(0.866019 0.0319782 0)
(0.867235 0.0344402 0)
(0.868325 0.0368384 0)
(0.868958 0.0392753 0)
(0.869159 0.041873 0)
(0.868437 0.0444898 0)
(0.866865 0.0469927 0)
(0.864544 0.0489631 0)
(0.864557 0.0489635 0)
(0.866864 0.0469913 0)
(0.868435 0.0444904 0)
(0.869157 0.0418727 0)
(0.868955 0.0392748 0)
(0.86832 0.0368392 0)
(0.867231 0.0344395 0)
(0.866012 0.0319783 0)
(0.864397 0.029407 0)
(0.862406 0.0265645 0)
(0.859704 0.023568 0)
(0.856248 0.0204693 0)
(0.851942 0.0173766 0)
(0.846797 0.0142348 0)
(0.840615 0.0111412 0)
(0.83348 0.00833804 0)
(0.825395 0.00636581 0)
(0.815827 0.00619798 0)
(0.802928 0.00679588 0)
(0.78502 0.00940984 0)
(0.762119 0.0104132 0)
(0.735464 0.0113117 0)
(0.704867 0.011668 0)
(0.670792 0.00897712 0)
(0.636876 0.00442802 0)
(0.606768 0.00441422 0)
(0.581639 0.0022993 0)
(0.561908 -0.00130465 0)
(0.546536 -0.00626068 0)
(0.535341 -0.0155658 0)
(0.528211 -0.0272969 0)
(0.519315 -0.0353187 0)
(0.520269 -0.0333692 0)
(0.516906 -0.0339898 0)
(0.513412 -0.0290523 0)
(0.510544 -0.0262484 0)
(0.507179 -0.0247111 0)
(0.503742 -0.0238999 0)
(0.500074 -0.0226346 0)
(0.496451 -0.0213714 0)
(0.493228 -0.0198825 0)
(0.490073 -0.0188035 0)
(0.486962 -0.0176471 0)
(0.483938 -0.0166151 0)
(0.48072 -0.0158135 0)
(0.477346 -0.0145631 0)
(0.47399 -0.0131925 0)
(0.471118 -0.01165 0)
(0.467947 -0.0107769 0)
(0.464783 -0.00930916 0)
(0.462067 -0.00775557 0)
(0.4593 -0.00682489 0)
(0.455799 -0.00621836 0)
(0.452128 -0.00409809 0)
(0.450748 -0.00129164 0)
(0.449812 0.000113272 0)
(0.448333 0.000804732 0)
(0.445656 0.00119394 0)
(0.44215 0.00268549 0)
(0.439848 0.00512782 0)
(0.438184 0.00670101 0)
(0.435774 0.00742731 0)
(0.434028 0.00973293 0)
(0.433473 0.0119866 0)
(0.43272 0.0136724 0)
(0.431779 0.0157165 0)
(0.431698 0.0178435 0)
(0.432154 0.0195366 0)
(0.432012 0.0209103 0)
(0.43218 0.0226911 0)
(0.432931 0.0244295 0)
(0.433569 0.0262264 0)
(0.434561 0.0282651 0)
(0.436271 0.0299832 0)
(0.437817 0.031764 0)
(0.439463 0.0337484 0)
(0.441595 0.0355751 0)
(0.443753 0.0377556 0)
(0.44653 0.0398143 0)
(0.449581 0.0415166 0)
(0.452496 0.043379 0)
(0.45559 0.0452845 0)
(0.459006 0.0473388 0)
(0.463089 0.0492656 0)
(0.467676 0.050768 0)
(0.472153 0.0527178 0)
(0.476956 0.054606 0)
(0.481857 0.0564265 0)
(0.486685 0.058542 0)
(0.491788 0.0610212 0)
(0.497735 0.0637754 0)
(0.504664 0.0660785 0)
(0.511848 0.0683978 0)
(0.519468 0.0704037 0)
(0.527438 0.0721176 0)
(0.536003 0.0740986 0)
(0.545126 0.0757725 0)
(0.554184 0.0778398 0)
(0.563713 0.0797806 0)
(0.573677 0.0819039 0)
(0.584356 0.083288 0)
(0.594186 0.084563 0)
(0.603952 0.0872747 0)
(0.62009 0.0924541 0)
(0.639144 0.0914664 0)
(0.647921 0.0872576 0)
(0.654779 0.0874485 0)
(0.666333 0.0921692 0)
(0.682575 0.0932668 0)
(0.697188 0.0937814 0)
(0.711776 0.0924315 0)
(0.726228 0.091032 0)
(0.740573 0.0896595 0)
(0.756809 0.0888411 0)
(0.773123 0.0853644 0)
(0.788983 0.0816118 0)
(0.803479 0.0776629 0)
(0.819528 0.0729 0)
(0.833073 0.0660244 0)
(0.846885 0.0619807 0)
(0.856809 0.0539728 0)
(0.870797 0.0459332 0)
(0.876944 0.0333009 0)
(0.888131 0.0259047 0)
(0.885845 0.0161895 0)
(0.889189 0.0117321 0)
(0.889012 0.00129537 0)
(0.882099 -0.00940457 0)
(0.884523 -0.0165842 0)
(0.879191 -0.0252642 0)
(0.875066 -0.0284687 0)
(0.870098 -0.0342645 0)
(0.864657 -0.0392068 0)
(0.861619 -0.0450105 0)
(0.857431 -0.0509934 0)
(0.851479 -0.0564864 0)
(0.845664 -0.0587356 0)
(0.841073 -0.0636757 0)
(0.836781 -0.0675245 0)
(0.834279 -0.0702593 0)
(0.831438 -0.0738705 0)
(0.827479 -0.0780376 0)
(0.821845 -0.0823114 0)
(0.817781 -0.0854222 0)
(0.813971 -0.0893003 0)
(0.810459 -0.0929413 0)
(0.807153 -0.0966158 0)
(0.803286 -0.100711 0)
(0.798505 -0.104913 0)
(0.792892 -0.109614 0)
(0.787468 -0.113222 0)
(0.782162 -0.11742 0)
(0.776513 -0.12228 0)
(0.770233 -0.127024 0)
(0.763649 -0.131439 0)
(0.756801 -0.135947 0)
(0.749334 -0.140396 0)
(0.741241 -0.144954 0)
(0.73219 -0.149164 0)
(0.72268 -0.152537 0)
(0.714036 -0.156103 0)
(0.705142 -0.161113 0)
(0.694751 -0.166666 0)
(0.683194 -0.171975 0)
(0.670631 -0.177521 0)
(0.656559 -0.183035 0)
(0.641164 -0.187838 0)
(0.625205 -0.191973 0)
(0.608812 -0.196769 0)
(0.590127 -0.202569 0)
(0.568071 -0.207733 0)
(0.543559 -0.211269 0)
(0.51776 -0.213018 0)
(0.490219 -0.215331 0)
(0.457162 -0.217242 0)
(0.41714 -0.213305 0)
(0.369886 -0.207645 0)
(0.317939 -0.191854 0)
(0.260569 -0.159929 0)
(0.202113 -0.108507 0)
(0.129141 -0.0402944 0)
(0.0740587 0.0604586 0)
(0.043137 0.194321 0)
(0.0521208 0.341129 0)
(0.138887 0.493241 0)
(0.26738 0.621164 0)
(0.434996 0.694338 0)
(0.59035 0.712716 0)
(0.714148 0.672763 0)
(0.778489 0.647171 0)
(0.865498 0.634723 0)
(0.951853 0.614841 0)
(1.02128 0.579859 0)
(1.07212 0.541346 0)
(1.11972 0.514766 0)
(1.14496 0.487699 0)
(1.16406 0.451724 0)
(1.18075 0.420367 0)
(1.18796 0.40431 0)
(1.19283 0.393454 0)
(1.1947 0.370743 0)
(1.19499 0.339748 0)
(1.19506 0.324961 0)
(1.19193 0.322151 0)
(1.18983 0.309081 0)
(1.18601 0.28518 0)
(1.18197 0.274241 0)
(1.1767 0.269791 0)
(1.17211 0.258811 0)
(1.16854 0.241604 0)
(1.16651 0.233824 0)
(1.16347 0.228067 0)
(1.16134 0.214983 0)
(1.15968 0.206327 0)
(1.15754 0.200811 0)
(1.15388 0.191763 0)
(1.14918 0.184645 0)
(1.14579 0.174492 0)
(1.14314 0.163266 0)
(1.14094 0.157134 0)
(1.14249 0.155043 0)
(1.14326 0.147584 0)
(1.14177 0.134382 0)
(1.14126 0.129498 0)
(1.13773 0.126892 0)
(1.1316 0.118322 0)
(1.12584 0.113632 0)
(1.12047 0.113614 0)
(1.11627 0.10788 0)
(1.11223 0.0983574 0)
(1.11156 0.0956395 0)
(1.1167 0.0920917 0)
(1.11563 0.0854105 0)
(1.11411 0.0798916 0)
(1.11112 0.0763536 0)
(1.10746 0.0691476 0)
(1.10462 0.058248 0)
(1.10297 0.0510993 0)
(1.09955 0.0512344 0)
(1.09818 0.0506155 0)
(1.09864 0.0432595 0)
(1.09962 0.0345149 0)
(1.0955 0.0294526 0)
(1.09394 0.0223088 0)
(1.08903 0.0188742 0)
(1.08686 0.018744 0)
(1.082 0.0175843 0)
(1.08666 0.0051614 0)
(1.07671 -0.00149674 0)
(1.0745 -0.00601377 0)
(1.08405 -0.00958494 0)
(1.07755 -0.00994842 0)
(1.07985 -0.0215685 0)
(1.07788 -0.0310016 0)
(1.07441 -0.033492 0)
(0.982694 -0.0187901 0)
(0.773438 -0.0198509 0)
(0.641512 -0.0300106 0)
(0.603617 -0.035837 0)
(0.59686 -0.0410709 0)
(0.596683 -0.0461261 0)
(0.597005 -0.049543 0)
(0.594871 -0.0522314 0)
(0.589702 -0.0539485 0)
(0.580916 -0.0527334 0)
(0.569258 -0.0531455 0)
(0.557821 -0.0541599 0)
(0.543051 -0.0595714 0)
(0.522339 -0.0620887 0)
(0.505235 -0.0582674 0)
(0.500054 -0.0567056 0)
(0.494054 -0.0593139 0)
(0.478171 -0.0618858 0)
(0.459326 -0.0600667 0)
(0.449864 -0.0566704 0)
(0.441927 -0.0570312 0)
(0.429058 -0.0583057 0)
(0.412478 -0.0572962 0)
(0.395944 -0.0534177 0)
(0.380927 -0.0505035 0)
(0.36631 -0.0501835 0)
(0.351987 -0.0491649 0)
(0.337781 -0.0474198 0)
(0.323533 -0.0460844 0)
(0.308841 -0.0446081 0)
(0.293922 -0.0427737 0)
(0.279236 -0.0411437 0)
(0.264946 -0.0395853 0)
(0.250825 -0.037714 0)
(0.236885 -0.03572 0)
(0.223313 -0.0339153 0)
(0.210283 -0.0320331 0)
(0.197617 -0.0298771 0)
(0.185209 -0.0275864 0)
(0.173071 -0.0256612 0)
(0.161173 -0.0239328 0)
(0.149597 -0.021984 0)
(0.138192 -0.0201145 0)
(0.127079 -0.0179344 0)
(0.116442 -0.0157925 0)
(0.106227 -0.0140521 0)
(0.0962976 -0.0127199 0)
(0.0865496 -0.0116724 0)
(0.0770944 -0.0106067 0)
(0.0682468 -0.00963051 0)
(0.0605217 -0.00897234 0)
(0.0542738 -0.00858387 0)
(0.0494002 -0.00820441 0)
(0.0456156 -0.00740307 0)
(0.042595 -0.00669816 0)
(0.0399139 -0.00650061 0)
(0.0374113 -0.00669129 0)
(0.0351408 -0.00685459 0)
(0.0330549 -0.0064985 0)
(0.0313282 -0.00572198 0)
(0.0299817 -0.00510398 0)
(0.0286534 -0.00504846 0)
(0.0272715 -0.00511091 0)
(0.0259632 -0.00499427 0)
(0.0248299 -0.00476236 0)
(0.0240187 -0.00450656 0)
(0.0233558 -0.00439594 0)
(0.022611 -0.0044485 0)
(0.0218028 -0.00459869 0)
(0.0212801 -0.00492565 0)
(0.0212918 -0.00553216 0)
(0.0217381 -0.00639306 0)
(0.0226961 -0.00777424 0)
(0.0245256 -0.00992528 0)
(0.0280061 -0.013274 0)
(0.0336639 -0.0182179 0)
(0.0420497 -0.0255063 0)
(0.0530683 -0.0364611 0)
(0.064638 -0.0494986 0)
(0.0794517 -0.0587536 0)
(0.0890557 -0.0670231 0)
(0.111906 -0.0455723 0)
(0.159009 -0.0196458 0)
(0.213837 -0.00332833 0)
(0.271168 0.00271399 0)
(0.33084 0.00710744 0)
(0.394372 0.00896567 0)
(0.460098 0.00771072 0)
(0.525507 0.00864147 0)
(0.590125 0.0101149 0)
(0.64973 0.010915 0)
(0.700929 0.0128389 0)
(0.742034 0.0109032 0)
(0.774115 0.00631702 0)
(0.798171 0.0052922 0)
(0.814322 0.00532562 0)
(0.825317 0.00690634 0)
(0.833553 0.00820275 0)
(0.840737 0.0110551 0)
(0.846887 0.0141779 0)
(0.852005 0.0173542 0)
(0.856298 0.0204727 0)
(0.859739 0.0235628 0)
(0.86243 0.0265602 0)
(0.864413 0.0294076 0)
(0.866023 0.0319779 0)
(0.867238 0.0344395 0)
(0.868327 0.0368378 0)
(0.868961 0.0392758 0)
(0.86916 0.0418732 0)
(0.868438 0.0444897 0)
(0.866866 0.0469938 0)
(0.864556 0.0489644 0)
(0.864541 0.0489632 0)
(0.866864 0.0469908 0)
(0.868434 0.0444897 0)
(0.869156 0.0418726 0)
(0.868954 0.0392748 0)
(0.868318 0.0368379 0)
(0.867227 0.0344392 0)
(0.866008 0.0319785 0)
(0.864391 0.0294077 0)
(0.862398 0.0265661 0)
(0.859692 0.0235665 0)
(0.856231 0.0204722 0)
(0.851922 0.0173914 0)
(0.846766 0.0142615 0)
(0.840578 0.0112228 0)
(0.833442 0.00845601 0)
(0.825408 0.00620696 0)
(0.81604 0.00559254 0)
(0.804003 0.00651228 0)
(0.788246 0.0100652 0)
(0.768061 0.0118967 0)
(0.744987 0.0124052 0)
(0.719102 0.0123111 0)
(0.690304 0.00978866 0)
(0.662256 0.00456896 0)
(0.638098 0.000953338 0)
(0.61924 -0.00145963 0)
(0.604952 -0.00587118 0)
(0.593391 -0.0123488 0)
(0.583978 -0.0201391 0)
(0.575435 -0.0272906 0)
(0.565096 -0.0319801 0)
(0.557526 -0.0309457 0)
(0.550608 -0.0297194 0)
(0.546092 -0.0262013 0)
(0.54229 -0.024604 0)
(0.53889 -0.023205 0)
(0.53531 -0.0221981 0)
(0.531776 -0.0210248 0)
(0.528276 -0.0199675 0)
(0.525014 -0.0186861 0)
(0.521838 -0.0176149 0)
(0.518684 -0.0165089 0)
(0.515627 -0.0154661 0)
(0.512451 -0.0145121 0)
(0.509227 -0.0133774 0)
(0.505968 -0.0121978 0)
(0.503062 -0.0107581 0)
(0.49993 -0.00965747 0)
(0.496835 -0.00828433 0)
(0.494072 -0.00683594 0)
(0.491272 -0.00557093 0)
(0.488039 -0.00430881 0)
(0.48485 -0.00265363 0)
(0.483325 -0.000437942 0)
(0.482112 0.000926366 0)
(0.480443 0.00170332 0)
(0.477902 0.00271078 0)
(0.474679 0.00421172 0)
(0.472418 0.00643982 0)
(0.470678 0.00819602 0)
(0.468514 0.00958605 0)
(0.466928 0.0117509 0)
(0.466387 0.0138543 0)
(0.465587 0.015498 0)
(0.464797 0.0174152 0)
(0.464681 0.0194089 0)
(0.465029 0.0211096 0)
(0.465002 0.0228727 0)
(0.465316 0.0247115 0)
(0.466185 0.026466 0)
(0.466983 0.0283521 0)
(0.468153 0.0303151 0)
(0.469913 0.032081 0)
(0.471546 0.0339112 0)
(0.473331 0.0358423 0)
(0.475551 0.0376627 0)
(0.477809 0.0396801 0)
(0.480658 0.0416233 0)
(0.483744 0.0433594 0)
(0.486726 0.0452686 0)
(0.489936 0.0472844 0)
(0.49348 0.0495205 0)
(0.497656 0.0517583 0)
(0.502355 0.0535905 0)
(0.506997 0.0554796 0)
(0.512012 0.0574199 0)
(0.517122 0.0594181 0)
(0.522185 0.0616158 0)
(0.527543 0.0640281 0)
(0.533739 0.066636 0)
(0.540813 0.0690891 0)
(0.548055 0.0715555 0)
(0.555664 0.0738737 0)
(0.563787 0.0759513 0)
(0.572743 0.0777992 0)
(0.581874 0.0798949 0)
(0.590986 0.0821538 0)
(0.600553 0.0842631 0)
(0.610601 0.0862803 0)
(0.621107 0.0879685 0)
(0.631141 0.0897746 0)
(0.641659 0.0921346 0)
(0.658271 0.0949037 0)
(0.676043 0.0935512 0)
(0.684935 0.0915451 0)
(0.692478 0.0931959 0)
(0.704537 0.0958555 0)
(0.719895 0.0957618 0)
(0.734577 0.0955265 0)
(0.749438 0.0941742 0)
(0.763964 0.0930521 0)
(0.778301 0.0914803 0)
(0.794462 0.0898031 0)
(0.810645 0.0862178 0)
(0.825995 0.0825729 0)
(0.83968 0.0773798 0)
(0.854996 0.0717629 0)
(0.867821 0.0648927 0)
(0.881379 0.060759 0)
(0.890691 0.0557855 0)
(0.903694 0.0494385 0)
(0.908857 0.0368319 0)
(0.919124 0.0254885 0)
(0.916346 0.0130094 0)
(0.919275 0.00815135 0)
(0.918101 0.00141277 0)
(0.911636 -0.00643058 0)
(0.912291 -0.0146237 0)
(0.906317 -0.0272216 0)
(0.900994 -0.0335515 0)
(0.894894 -0.0376073 0)
(0.889115 -0.0401862 0)
(0.885001 -0.0460054 0)
(0.880715 -0.0509726 0)
(0.874293 -0.0585786 0)
(0.868277 -0.0620221 0)
(0.863397 -0.0643457 0)
(0.858627 -0.0698762 0)
(0.855069 -0.0746602 0)
(0.85153 -0.0777159 0)
(0.846998 -0.0814368 0)
(0.841307 -0.0851413 0)
(0.836646 -0.0889995 0)
(0.832233 -0.0931593 0)
(0.827864 -0.0971733 0)
(0.823639 -0.101115 0)
(0.818991 -0.105 0)
(0.813661 -0.108851 0)
(0.807921 -0.112234 0)
(0.801983 -0.116126 0)
(0.796038 -0.12067 0)
(0.789851 -0.125229 0)
(0.78298 -0.129891 0)
(0.775724 -0.134438 0)
(0.768195 -0.139003 0)
(0.76007 -0.143508 0)
(0.751371 -0.148067 0)
(0.741763 -0.152181 0)
(0.731888 -0.155465 0)
(0.722768 -0.158904 0)
(0.713326 -0.163521 0)
(0.702491 -0.168536 0)
(0.69054 -0.173385 0)
(0.677568 -0.178383 0)
(0.663186 -0.183381 0)
(0.647602 -0.187744 0)
(0.631339 -0.191488 0)
(0.614429 -0.195678 0)
(0.595352 -0.200633 0)
(0.573234 -0.204671 0)
(0.54874 -0.206852 0)
(0.522645 -0.207293 0)
(0.494432 -0.207455 0)
(0.461235 -0.206235 0)
(0.422711 -0.200415 0)
(0.378966 -0.192345 0)
(0.328666 -0.171088 0)
(0.274661 -0.134852 0)
(0.225143 -0.0846254 0)
(0.166813 -0.0197611 0)
(0.128018 0.069665 0)
(0.104571 0.185838 0)
(0.115077 0.317549 0)
(0.186239 0.456677 0)
(0.294409 0.570082 0)
(0.438732 0.641737 0)
(0.585811 0.678928 0)
(0.701482 0.658805 0)
(0.77707 0.643633 0)
(0.860701 0.632122 0)
(0.944209 0.612874 0)
(1.01656 0.580199 0)
(1.06784 0.548653 0)
(1.11756 0.52393 0)
(1.14974 0.489749 0)
(1.17185 0.454979 0)
(1.18764 0.434015 0)
(1.19704 0.421448 0)
(1.20888 0.399684 0)
(1.21396 0.364681 0)
(1.21492 0.346997 0)
(1.21253 0.344883 0)
(1.2132 0.336198 0)
(1.21371 0.307465 0)
(1.21105 0.290614 0)
(1.20589 0.287519 0)
(1.20266 0.280478 0)
(1.19963 0.25923 0)
(1.1959 0.24814 0)
(1.19336 0.244999 0)
(1.1919 0.233485 0)
(1.19002 0.220633 0)
(1.1886 0.215957 0)
(1.18794 0.206102 0)
(1.18565 0.194895 0)
(1.18183 0.18663 0)
(1.17959 0.176141 0)
(1.17784 0.170844 0)
(1.17656 0.171213 0)
(1.18091 0.165235 0)
(1.18367 0.147028 0)
(1.18193 0.137483 0)
(1.1804 0.137988 0)
(1.17747 0.130314 0)
(1.17219 0.12371 0)
(1.16771 0.125102 0)
(1.16444 0.121281 0)
(1.16116 0.10772 0)
(1.15715 0.103909 0)
(1.15542 0.104771 0)
(1.15984 0.0975266 0)
(1.15942 0.0929906 0)
(1.16156 0.0884536 0)
(1.16325 0.0778824 0)
(1.16224 0.0644872 0)
(1.16153 0.0568999 0)
(1.15939 0.0591577 0)
(1.15555 0.0624375 0)
(1.15513 0.0523142 0)
(1.15369 0.0399198 0)
(1.15356 0.0334975 0)
(1.15042 0.0300002 0)
(1.15113 0.0269706 0)
(1.14771 0.0290563 0)
(1.14747 0.02588 0)
(1.14427 0.0140514 0)
(1.15073 -0.00149297 0)
(1.14295 -0.00266649 0)
(1.14013 0.00178351 0)
(1.14912 -0.00312967 0)
(1.14353 -0.0151136 0)
(1.14546 -0.0281293 0)
(1.14489 -0.0315767 0)
(1.13892 -0.0281208 0)
(1.05904 -0.0108379 0)
(0.865557 -0.00844507 0)
(0.739746 -0.0260635 0)
(0.698398 -0.0357782 0)
(0.686099 -0.0414262 0)
(0.680922 -0.04616 0)
(0.677355 -0.0494694 0)
(0.672125 -0.051877 0)
(0.664383 -0.0533681 0)
(0.654485 -0.055558 0)
(0.641476 -0.054561 0)
(0.628569 -0.0576319 0)
(0.612151 -0.0606577 0)
(0.591317 -0.0620789 0)
(0.572384 -0.0591745 0)
(0.565693 -0.0583942 0)
(0.558925 -0.0608575 0)
(0.543009 -0.0629044 0)
(0.524304 -0.0614212 0)
(0.513464 -0.0588875 0)
(0.505138 -0.0587441 0)
(0.491963 -0.0595967 0)
(0.475003 -0.0590202 0)
(0.458863 -0.0576938 0)
(0.443782 -0.0568658 0)
(0.428517 -0.0555128 0)
(0.41332 -0.0545105 0)
(0.398414 -0.0535081 0)
(0.383367 -0.0523488 0)
(0.367918 -0.050852 0)
(0.352594 -0.0488658 0)
(0.337408 -0.0470178 0)
(0.322319 -0.0451749 0)
(0.307179 -0.0432533 0)
(0.292138 -0.0413961 0)
(0.277553 -0.0394641 0)
(0.263454 -0.0376062 0)
(0.249594 -0.0357345 0)
(0.2359 -0.0339194 0)
(0.222605 -0.0318156 0)
(0.209618 -0.0295812 0)
(0.197035 -0.0273927 0)
(0.184672 -0.0251746 0)
(0.172511 -0.0233061 0)
(0.160778 -0.0216432 0)
(0.149547 -0.0198563 0)
(0.138734 -0.0180414 0)
(0.128326 -0.0164004 0)
(0.118358 -0.0150652 0)
(0.108938 -0.0140821 0)
(0.100252 -0.0134957 0)
(0.092497 -0.0132566 0)
(0.0856428 -0.0128735 0)
(0.0795956 -0.0122629 0)
(0.0742954 -0.0115731 0)
(0.0695489 -0.0108437 0)
(0.0653275 -0.0103325 0)
(0.0617068 -0.00991076 0)
(0.0585802 -0.00956802 0)
(0.0557313 -0.00913704 0)
(0.0530132 -0.00864074 0)
(0.0504864 -0.00832277 0)
(0.0481486 -0.00815892 0)
(0.0461272 -0.00801424 0)
(0.0443137 -0.00782616 0)
(0.0428294 -0.00750033 0)
(0.0415215 -0.0072001 0)
(0.0402614 -0.00697201 0)
(0.0389909 -0.00683501 0)
(0.0379717 -0.00705391 0)
(0.0376712 -0.00795033 0)
(0.0380813 -0.00942926 0)
(0.0388639 -0.0117213 0)
(0.0399983 -0.0151586 0)
(0.0414844 -0.020262 0)
(0.0435849 -0.0275006 0)
(0.0466266 -0.0370748 0)
(0.0515361 -0.0485281 0)
(0.0540681 -0.0589133 0)
(0.0552121 -0.0627978 0)
(0.0563368 -0.0606137 0)
(0.0632051 -0.0482122 0)
(0.0865625 -0.0308121 0)
(0.124617 -0.0123966 0)
(0.172586 -0.00111953 0)
(0.229073 0.00551307 0)
(0.299669 0.00833051 0)
(0.382029 0.00962019 0)
(0.467841 0.0088908 0)
(0.549167 0.0103795 0)
(0.622775 0.0121577 0)
(0.683978 0.0122332 0)
(0.732625 0.0116508 0)
(0.76934 0.00705867 0)
(0.796026 0.00470363 0)
(0.813592 0.00480624 0)
(0.825147 0.00670815 0)
(0.833587 0.00826185 0)
(0.840786 0.011079 0)
(0.84692 0.0141693 0)
(0.852029 0.0173545 0)
(0.856316 0.0204717 0)
(0.859752 0.0235628 0)
(0.862438 0.0265576 0)
(0.864419 0.0294085 0)
(0.866027 0.0319774 0)
(0.867241 0.0344403 0)
(0.868328 0.0368389 0)
(0.868963 0.0392751 0)
(0.86916 0.0418739 0)
(0.868439 0.0444901 0)
(0.866867 0.0469951 0)
(0.864551 0.0489645 0)
(0.864542 0.0489622 0)
(0.866863 0.0469906 0)
(0.868433 0.0444888 0)
(0.869155 0.0418728 0)
(0.868951 0.0392738 0)
(0.868316 0.0368384 0)
(0.867224 0.0344388 0)
(0.866004 0.0319776 0)
(0.864386 0.0294089 0)
(0.862391 0.0265671 0)
(0.859682 0.0235642 0)
(0.856216 0.0204748 0)
(0.851901 0.0174076 0)
(0.846739 0.0142868 0)
(0.840558 0.0113415 0)
(0.833436 0.00862456 0)
(0.825451 0.00624079 0)
(0.816229 0.00521622 0)
(0.804664 0.00580778 0)
(0.790194 0.00921322 0)
(0.772559 0.0118096 0)
(0.75236 0.0123626 0)
(0.729519 0.0107634 0)
(0.705178 0.00990364 0)
(0.681462 0.00683482 0)
(0.66131 0.00173992 0)
(0.645782 -0.00225836 0)
(0.633658 -0.00776084 0)
(0.623237 -0.0145887 0)
(0.614012 -0.0210126 0)
(0.604072 -0.0261668 0)
(0.593829 -0.0282191 0)
(0.585532 -0.0273213 0)
(0.578648 -0.0271258 0)
(0.573428 -0.0249443 0)
(0.569241 -0.0236242 0)
(0.56556 -0.0225039 0)
(0.561903 -0.0216048 0)
(0.558449 -0.0205043 0)
(0.555023 -0.0195301 0)
(0.551788 -0.0183366 0)
(0.548617 -0.0173235 0)
(0.545489 -0.0162422 0)
(0.54244 -0.0152195 0)
(0.539323 -0.0142481 0)
(0.536236 -0.0131653 0)
(0.533099 -0.0120773 0)
(0.530245 -0.0107024 0)
(0.527217 -0.00962659 0)
(0.524264 -0.00811481 0)
(0.521539 -0.00655628 0)
(0.518747 -0.00524099 0)
(0.515718 -0.00399943 0)
(0.51282 -0.00219041 0)
(0.511118 -9.91223e-05 0)
(0.509662 0.00128814 0)
(0.507873 0.00213645 0)
(0.505463 0.00303122 0)
(0.502566 0.00451239 0)
(0.500443 0.00665871 0)
(0.498808 0.00857624 0)
(0.496817 0.010119 0)
(0.495277 0.0123472 0)
(0.494639 0.0144656 0)
(0.493802 0.0161023 0)
(0.493156 0.0179367 0)
(0.493064 0.019949 0)
(0.493411 0.0218179 0)
(0.493585 0.0237145 0)
(0.494033 0.0258668 0)
(0.49489 0.0280212 0)
(0.49573 0.0301955 0)
(0.496942 0.0323476 0)
(0.498653 0.0342666 0)
(0.500298 0.0362229 0)
(0.502165 0.0382163 0)
(0.504435 0.0400683 0)
(0.506777 0.042113 0)
(0.509708 0.0440033 0)
(0.51286 0.0457057 0)
(0.515937 0.0476347 0)
(0.519245 0.0497063 0)
(0.522865 0.0520684 0)
(0.527068 0.0545881 0)
(0.53173 0.0569162 0)
(0.536426 0.0593336 0)
(0.541511 0.0615755 0)
(0.546708 0.0637328 0)
(0.551923 0.0660469 0)
(0.557529 0.0684975 0)
(0.563993 0.0708577 0)
(0.571292 0.0725558 0)
(0.57862 0.0744705 0)
(0.586232 0.0767703 0)
(0.594353 0.0794112 0)
(0.602959 0.082412 0)
(0.611696 0.0847158 0)
(0.620704 0.0867106 0)
(0.630261 0.0886338 0)
(0.640247 0.0907243 0)
(0.650662 0.0923725 0)
(0.660881 0.0941061 0)
(0.671763 0.0969968 0)
(0.687987 0.100929 0)
(0.705001 0.0994027 0)
(0.714245 0.0955205 0)
(0.721935 0.0972598 0)
(0.73393 0.099641 0)
(0.749167 0.0991657 0)
(0.763888 0.0995197 0)
(0.778398 0.0993046 0)
(0.792607 0.0977671 0)
(0.806696 0.0957486 0)
(0.822379 0.0940468 0)
(0.837949 0.0903949 0)
(0.852564 0.0864017 0)
(0.865914 0.0814501 0)
(0.881521 0.0764144 0)
(0.89394 0.067509 0)
(0.907203 0.0581691 0)
(0.916083 0.0515305 0)
(0.928374 0.0495744 0)
(0.932997 0.0409446 0)
(0.941513 0.0305938 0)
(0.9388 0.0143146 0)
(0.940955 0.00416405 0)
(0.939308 -0.00326198 0)
(0.933297 -0.00662251 0)
(0.932893 -0.0114673 0)
(0.925927 -0.0236363 0)
(0.920122 -0.0337066 0)
(0.912926 -0.0415319 0)
(0.906473 -0.0444965 0)
(0.901603 -0.0490196 0)
(0.897311 -0.0520522 0)
(0.890759 -0.0574339 0)
(0.884391 -0.0646747 0)
(0.879232 -0.0667526 0)
(0.874162 -0.0683331 0)
(0.869518 -0.0732641 0)
(0.865118 -0.0790512 0)
(0.860207 -0.083987 0)
(0.854558 -0.0866252 0)
(0.849767 -0.088748 0)
(0.844768 -0.0917615 0)
(0.839678 -0.0959498 0)
(0.834761 -0.100767 0)
(0.829522 -0.106044 0)
(0.823709 -0.111093 0)
(0.817492 -0.114897 0)
(0.811558 -0.118172 0)