/*--------------------------------*- C++ -*----------------------------------*\
| =========                 |                                                 |
| \\      /  F ield         | OpenFOAM: The Open Source CFD Toolbox           |
|  \\    /   O peration     | Version:  v2006                                 |
|   \\  /    A nd           | Website:  www.openfoam.com                      |
|    \\/     M anipulation  |                                                 |
\*---------------------------------------------------------------------------*/
FoamFile
{
    version     2.0;
    format      ascii;
    class       volVectorField;
    location    "185";
    object      UMean;
}
// * * * * * * * * * * * * * * * * * * * * * * * * * * * * * * * * * * * * * //

dimensions      [0 1 -1 0 0 0 0];


internalField   nonuniform List<vector> 
93840
(
(0.861294 0.0448393 0)
(0.863007 0.0435427 0)
(0.864138 0.0417017 0)
(0.8647 0.0396168 0)
(0.864529 0.0374635 0)
(0.864021 0.0353507 0)
(0.863094 0.0331996 0)
(0.861985 0.0309268 0)
(0.860472 0.0284844 0)
(0.858555 0.0257751 0)
(0.855978 0.022868 0)
(0.852671 0.019764 0)
(0.848431 0.0165736 0)
(0.843238 0.0133861 0)
(0.837103 0.0103825 0)
(0.830129 0.00775222 0)
(0.822108 0.0057813 0)
(0.812152 0.00473429 0)
(0.798509 0.00467831 0)
(0.778512 0.00542659 0)
(0.75099 0.00652783 0)
(0.717388 0.00774224 0)
(0.679357 0.00857583 0)
(0.6391 0.00863983 0)
(0.59946 0.00807327 0)
(0.562363 0.00711265 0)
(0.528973 0.0056306 0)
(0.499417 0.00351398 0)
(0.474098 0.000529117 0)
(0.455108 -0.00203406 0)
(0.441594 -0.00306435 0)
(0.426951 -0.00331484 0)
(0.465499 -0.0194392 0)
(0.478431 -0.0312283 0)
(0.475059 -0.0278531 0)
(0.47398 -0.0259109 0)
(0.470749 -0.024655 0)
(0.467776 -0.0238969 0)
(0.463779 -0.0228024 0)
(0.459913 -0.0213451 0)
(0.456736 -0.0198207 0)
(0.453663 -0.0186658 0)
(0.450661 -0.0174898 0)
(0.447792 -0.0164691 0)
(0.444667 -0.0156452 0)
(0.441141 -0.0146396 0)
(0.437683 -0.0132127 0)
(0.434952 -0.0118246 0)
(0.431897 -0.0108418 0)
(0.428601 -0.009566 0)
(0.42602 -0.0080796 0)
(0.423578 -0.0070642 0)
(0.419829 -0.00631021 0)
(0.415566 -0.00395661 0)
(0.414418 -0.000996609 0)
(0.413875 0.00033311 0)
(0.412671 0.000390803 0)
(0.409931 0.00071249 0)
(0.406166 0.00197347 0)
(0.403787 0.0045179 0)
(0.402345 0.00608559 0)
(0.399925 0.00712065 0)
(0.397995 0.00945765 0)
(0.39742 0.0116781 0)
(0.396668 0.0129439 0)
(0.395572 0.0146399 0)
(0.395463 0.0167734 0)
(0.395985 0.0180797 0)
(0.395878 0.0196443 0)
(0.396056 0.0214165 0)
(0.396764 0.0228846 0)
(0.397329 0.0244678 0)
(0.398284 0.0262985 0)
(0.399892 0.0278766 0)
(0.401386 0.0294375 0)
(0.403051 0.0311663 0)
(0.405098 0.0327793 0)
(0.40724 0.0345573 0)
(0.409956 0.0363033 0)
(0.412885 0.0378081 0)
(0.415691 0.0394344 0)
(0.418622 0.0411947 0)
(0.421876 0.043147 0)
(0.42582 0.0451389 0)
(0.430181 0.0468662 0)
(0.43455 0.0486592 0)
(0.439201 0.0504487 0)
(0.443927 0.0521955 0)
(0.448646 0.0541135 0)
(0.453688 0.056317 0)
(0.45959 0.0587128 0)
(0.4663 0.0608654 0)
(0.473205 0.0629464 0)
(0.480438 0.0650059 0)
(0.488103 0.0670406 0)
(0.496312 0.0689876 0)
(0.505061 0.0708166 0)
(0.513659 0.0726502 0)
(0.523003 0.0745659 0)
(0.532824 0.0765165 0)
(0.544034 0.0782103 0)
(0.553794 0.0798928 0)
(0.562648 0.082226 0)
(0.577604 0.0857658 0)
(0.598124 0.084452 0)
(0.605374 0.0819377 0)
(0.611525 0.0835243 0)
(0.621813 0.0857772 0)
(0.639124 0.0862143 0)
(0.653523 0.0861791 0)
(0.668105 0.0853512 0)
(0.682069 0.0842549 0)
(0.695986 0.0828492 0)
(0.712003 0.0815058 0)
(0.727935 0.0783659 0)
(0.743177 0.0750967 0)
(0.757446 0.0711382 0)
(0.773929 0.0680286 0)
(0.788991 0.0623401 0)
(0.803417 0.0574109 0)
(0.813951 0.0498879 0)
(0.828814 0.0438471 0)
(0.835254 0.0338631 0)
(0.847007 0.0269171 0)
(0.845235 0.0148358 0)
(0.848846 0.00911317 0)
(0.85034 -0.00105372 0)
(0.843241 -0.00813926 0)
(0.847235 -0.0135005 0)
(0.842702 -0.023114 0)
(0.839257 -0.0278871 0)
(0.835895 -0.0350615 0)
(0.831115 -0.0389813 0)
(0.82883 -0.044381 0)
(0.824729 -0.0491757 0)
(0.819299 -0.0547763 0)
(0.813722 -0.0584607 0)
(0.810143 -0.062657 0)
(0.805981 -0.0661675 0)
(0.803637 -0.0698902 0)
(0.801039 -0.0739208 0)
(0.797872 -0.0783997 0)
(0.792829 -0.0813984 0)
(0.789746 -0.0849276 0)
(0.786512 -0.0884977 0)
(0.783463 -0.0921537 0)
(0.780692 -0.0961377 0)
(0.777451 -0.100531 0)
(0.773474 -0.105381 0)
(0.768569 -0.108483 0)
(0.764052 -0.113054 0)
(0.759783 -0.117932 0)
(0.754658 -0.121816 0)
(0.748904 -0.126257 0)
(0.742922 -0.130685 0)
(0.736572 -0.135245 0)
(0.729671 -0.139857 0)
(0.722108 -0.144541 0)
(0.713589 -0.148902 0)
(0.704691 -0.15263 0)
(0.696568 -0.156647 0)
(0.688193 -0.161813 0)
(0.67836 -0.167428 0)
(0.667351 -0.172852 0)
(0.655261 -0.17839 0)
(0.641587 -0.183833 0)
(0.626444 -0.188636 0)
(0.61074 -0.192933 0)
(0.594631 -0.198081 0)
(0.576085 -0.204543 0)
(0.554068 -0.210177 0)
(0.529335 -0.213823 0)
(0.503489 -0.2159 0)
(0.475954 -0.218936 0)
(0.44249 -0.222834 0)
(0.404731 -0.223251 0)
(0.363905 -0.216511 0)
(0.312215 -0.204281 0)
(0.249253 -0.174749 0)
(0.172647 -0.133184 0)
(0.0898961 -0.0677486 0)
(0.0159204 0.059713 0)
(-0.0031712 0.204814 0)
(0.0115391 0.378944 0)
(0.104949 0.530054 0)
(0.211742 0.652402 0)
(0.370009 0.734852 0)
(0.547127 0.747714 0)
(0.702558 0.684648 0)
(0.763408 0.646461 0)
(0.853149 0.649206 0)
(0.94591 0.628085 0)
(1.01482 0.590458 0)
(1.06223 0.55379 0)
(1.11006 0.520353 0)
(1.13411 0.487278 0)
(1.14987 0.457262 0)
(1.16212 0.42876 0)
(1.16839 0.404274 0)
(1.17325 0.380327 0)
(1.17103 0.360594 0)
(1.1679 0.343067 0)
(1.16551 0.32633 0)
(1.16266 0.311081 0)
(1.15981 0.296533 0)
(1.15464 0.283477 0)
(1.14894 0.271385 0)
(1.14398 0.259717 0)
(1.13871 0.248808 0)
(1.13373 0.238595 0)
(1.13033 0.228401 0)
(1.12689 0.218707 0)
(1.12383 0.209441 0)
(1.12133 0.200307 0)
(1.11766 0.191648 0)
(1.11238 0.183555 0)
(1.10699 0.1761 0)
(1.10299 0.168428 0)
(1.09896 0.161063 0)
(1.09609 0.153697 0)
(1.09805 0.145403 0)
(1.09734 0.137585 0)
(1.09247 0.131215 0)
(1.08775 0.125279 0)
(1.08242 0.119801 0)
(1.07649 0.11484 0)
(1.07123 0.109875 0)
(1.06588 0.105035 0)
(1.06007 0.100257 0)
(1.0537 0.0958188 0)
(1.04988 0.0910943 0)
(1.05287 0.0842483 0)
(1.05227 0.0780608 0)
(1.05321 0.0714887 0)
(1.05174 0.065596 0)
(1.0474 0.0607777 0)
(1.04276 0.0564258 0)
(1.03881 0.0518614 0)
(1.03438 0.0477646 0)
(1.03176 0.0429792 0)
(1.0281 0.0387953 0)
(1.02642 0.0336815 0)
(1.02315 0.0294277 0)
(1.02264 0.023768 0)
(1.01905 0.0195264 0)
(1.01663 0.0141043 0)
(1.01195 0.0107035 0)
(1.0147 0.00286009 0)
(1.00085 0.00102602 0)
(0.997102 -0.00236203 0)
(1.00456 -0.0116514 0)
(0.996308 -0.0147273 0)
(0.99437 -0.0204566 0)
(0.976206 -0.0232079 0)
(0.874152 -0.0248294 0)
(0.703472 -0.0218504 0)
(0.591333 -0.0229515 0)
(0.560445 -0.0266048 0)
(0.556666 -0.0306405 0)
(0.55843 -0.0339007 0)
(0.559662 -0.0368659 0)
(0.558433 -0.0393313 0)
(0.555529 -0.0418994 0)
(0.549953 -0.0441683 0)
(0.54301 -0.0463081 0)
(0.534196 -0.0477978 0)
(0.52569 -0.0494873 0)
(0.514217 -0.0518146 0)
(0.493409 -0.0534487 0)
(0.478448 -0.0503054 0)
(0.47312 -0.0489964 0)
(0.466851 -0.0514372 0)
(0.449758 -0.0539467 0)
(0.429527 -0.0515442 0)
(0.421021 -0.0490445 0)
(0.413299 -0.049243 0)
(0.40147 -0.0505453 0)
(0.38693 -0.0504944 0)
(0.370965 -0.048814 0)
(0.357206 -0.0477281 0)
(0.34352 -0.0467682 0)
(0.329389 -0.0457298 0)
(0.31481 -0.0444945 0)
(0.300324 -0.0432306 0)
(0.285616 -0.0417981 0)
(0.270403 -0.0399282 0)
(0.255735 -0.0381242 0)
(0.241571 -0.0364394 0)
(0.227724 -0.0347831 0)
(0.214126 -0.0330988 0)
(0.200849 -0.031382 0)
(0.187961 -0.0296783 0)
(0.175368 -0.0279518 0)
(0.163062 -0.0261977 0)
(0.151116 -0.0244542 0)
(0.139633 -0.0227572 0)
(0.128639 -0.0210981 0)
(0.118043 -0.0194652 0)
(0.107657 -0.0177887 0)
(0.0975466 -0.0161123 0)
(0.0878736 -0.014485 0)
(0.0788131 -0.0130137 0)
(0.0702237 -0.0116304 0)
(0.0618703 -0.0102635 0)
(0.0536733 -0.00884353 0)
(0.0459939 -0.00746515 0)
(0.0391129 -0.00627232 0)
(0.0331107 -0.00527525 0)
(0.0279701 -0.00445457 0)
(0.0236072 -0.00377429 0)
(0.019959 -0.0032192 0)
(0.0170133 -0.00278829 0)
(0.0147272 -0.00245395 0)
(0.0130455 -0.0022267 0)
(0.0118691 -0.00208146 0)
(0.0110438 -0.0019838 0)
(0.0104179 -0.00190862 0)
(0.00988689 -0.00184235 0)
(0.00941211 -0.00176433 0)
(0.00899616 -0.00167796 0)
(0.00863988 -0.00160233 0)
(0.00833291 -0.00153588 0)
(0.00805533 -0.00148454 0)
(0.00779506 -0.00143243 0)
(0.00756409 -0.00138947 0)
(0.00746258 -0.00143458 0)
(0.00774816 -0.00171314 0)
(0.00886692 -0.00242146 0)
(0.0114763 -0.00381533 0)
(0.016308 -0.00606364 0)
(0.024037 -0.00937661 0)
(0.0352633 -0.0144687 0)
(0.051759 -0.0229666 0)
(0.0721452 -0.0407657 0)
(0.104205 -0.0539659 0)
(0.128009 -0.0616289 0)
(0.220172 0.000288702 0)
(0.292931 0.010939 0)
(0.341568 0.00914203 0)
(0.384825 0.00648546 0)
(0.429205 0.00612879 0)
(0.473615 0.00790565 0)
(0.518947 0.00880796 0)
(0.56632 0.00893275 0)
(0.614939 0.00903165 0)
(0.66268 0.00858638 0)
(0.706643 0.00761 0)
(0.744589 0.00638904 0)
(0.775192 0.00527062 0)
(0.797121 0.00456424 0)
(0.811738 0.0046584 0)
(0.82204 0.00572736 0)
(0.830153 0.00771525 0)
(0.837139 0.0103576 0)
(0.843266 0.0133715 0)
(0.84845 0.0165647 0)
(0.852685 0.0197595 0)
(0.855988 0.0228654 0)
(0.858562 0.0257737 0)
(0.860477 0.028484 0)
(0.861988 0.0309267 0)
(0.863096 0.0331999 0)
(0.864024 0.0353511 0)
(0.864529 0.0374635 0)
(0.864701 0.0396172 0)
(0.864138 0.0417022 0)
(0.863007 0.0435431 0)
(0.861294 0.0448397 0)
(0.861304 0.0448393 0)
(0.863006 0.0435422 0)
(0.864137 0.0417013 0)
(0.864699 0.0396164 0)
(0.864526 0.037463 0)
(0.86402 0.0353509 0)
(0.863092 0.0331994 0)
(0.861981 0.0309269 0)
(0.860467 0.028485 0)
(0.858547 0.0257764 0)
(0.855967 0.0228705 0)
(0.852655 0.0197697 0)
(0.848409 0.0165829 0)
(0.843209 0.0134036 0)
(0.837063 0.01041 0)
(0.830098 0.0077955 0)
(0.82216 0.00584141 0)
(0.812565 0.00480648 0)
(0.799879 0.00474422 0)
(0.781824 0.00547316 0)
(0.757322 0.00659433 0)
(0.727915 0.00775305 0)
(0.695316 0.0085278 0)
(0.661643 0.00838528 0)
(0.629465 0.00737454 0)
(0.600717 0.00576663 0)
(0.57633 0.00317052 0)
(0.556622 -0.000752587 0)
(0.541455 -0.00666598 0)
(0.530712 -0.0157285 0)
(0.52359 -0.0273895 0)
(0.51437 -0.0350095 0)
(0.51544 -0.0330615 0)
(0.512398 -0.0336321 0)
(0.509014 -0.0287817 0)
(0.506251 -0.0260297 0)
(0.502895 -0.0246048 0)
(0.499502 -0.0238463 0)
(0.49589 -0.022594 0)
(0.492277 -0.0213261 0)
(0.489048 -0.0198555 0)
(0.485914 -0.0187391 0)
(0.482841 -0.0175646 0)
(0.479861 -0.0165029 0)
(0.476661 -0.015718 0)
(0.473326 -0.014517 0)
(0.47001 -0.0132003 0)
(0.467179 -0.0117317 0)
(0.464093 -0.0108907 0)
(0.460972 -0.00945529 0)
(0.458292 -0.00784873 0)
(0.455582 -0.00680526 0)
(0.452132 -0.00605262 0)
(0.448528 -0.00391546 0)
(0.447175 -0.00112598 0)
(0.446288 0.000185549 0)
(0.444823 0.00071603 0)
(0.4422 0.00103644 0)
(0.438775 0.00238518 0)
(0.436547 0.0048085 0)
(0.434966 0.00656808 0)
(0.432635 0.00754711 0)
(0.4309 0.00986582 0)
(0.430367 0.0120672 0)
(0.429591 0.0136084 0)
(0.428669 0.0154358 0)
(0.428603 0.0174784 0)
(0.429132 0.0191789 0)
(0.429113 0.0206126 0)
(0.429343 0.0225318 0)
(0.43017 0.0243395 0)
(0.430851 0.0261654 0)
(0.431861 0.028191 0)
(0.433589 0.0298931 0)
(0.435182 0.0316532 0)
(0.436915 0.0335936 0)
(0.439121 0.0353365 0)
(0.441354 0.0373664 0)
(0.444169 0.0392882 0)
(0.447231 0.0408553 0)
(0.450125 0.0426469 0)
(0.453189 0.0445591 0)
(0.456572 0.0467424 0)
(0.460612 0.0489595 0)
(0.46516 0.0507429 0)
(0.469647 0.0527713 0)
(0.474444 0.0546757 0)
(0.47935 0.0564556 0)
(0.484249 0.0585054 0)
(0.4895 0.0609136 0)
(0.49559 0.0634836 0)
(0.50262 0.065421 0)
(0.509745 0.0674782 0)
(0.517193 0.0695717 0)
(0.525046 0.0717966 0)
(0.533444 0.0740592 0)
(0.542274 0.0759016 0)
(0.551149 0.0780244 0)
(0.560664 0.0800062 0)
(0.570765 0.082215 0)
(0.581563 0.0837168 0)
(0.591466 0.0851001 0)
(0.601185 0.0878924 0)
(0.61693 0.0929511 0)
(0.635565 0.091403 0)
(0.643985 0.0867462 0)
(0.65068 0.0876848 0)
(0.662008 0.0921384 0)
(0.678378 0.0924374 0)
(0.693135 0.0927127 0)
(0.707823 0.0919219 0)
(0.722014 0.0908178 0)
(0.736131 0.0893878 0)
(0.752125 0.0885767 0)
(0.768128 0.085388 0)
(0.783579 0.0818754 0)
(0.797984 0.0773875 0)
(0.813854 0.072827 0)
(0.827422 0.0656799 0)
(0.841131 0.0595627 0)
(0.85109 0.0517036 0)
(0.865095 0.0455225 0)
(0.870909 0.0352411 0)
(0.881773 0.0278255 0)
(0.879505 0.0158832 0)
(0.88289 0.00929222 0)
(0.883018 -0.000596599 0)
(0.876313 -0.00880921 0)
(0.878772 -0.0141246 0)
(0.873505 -0.0235502 0)
(0.869279 -0.0290515 0)
(0.864545 -0.0358846 0)
(0.859375 -0.0402335 0)
(0.856374 -0.0454897 0)
(0.852193 -0.0501892 0)
(0.846645 -0.0554681 0)
(0.841063 -0.0590657 0)
(0.837032 -0.062809 0)
(0.832667 -0.0660741 0)
(0.829712 -0.0695687 0)
(0.826524 -0.0734191 0)
(0.822672 -0.0778528 0)
(0.817347 -0.0819719 0)
(0.813448 -0.0849514 0)
(0.809597 -0.0885721 0)
(0.805849 -0.0922052 0)
(0.80236 -0.0960692 0)
(0.798406 -0.100329 0)
(0.793716 -0.104692 0)
(0.788307 -0.109232 0)
(0.78309 -0.112844 0)
(0.777932 -0.116718 0)
(0.772317 -0.121416 0)
(0.765978 -0.125938 0)
(0.759319 -0.130229 0)
(0.752371 -0.134688 0)
(0.744842 -0.139147 0)
(0.736723 -0.143836 0)
(0.727678 -0.148283 0)
(0.71823 -0.151761 0)
(0.709615 -0.155333 0)
(0.700766 -0.160266 0)
(0.690415 -0.165761 0)
(0.678909 -0.171035 0)
(0.666402 -0.176464 0)
(0.652371 -0.181812 0)
(0.636993 -0.186544 0)
(0.621055 -0.190632 0)
(0.604672 -0.195345 0)
(0.586001 -0.201051 0)
(0.563993 -0.206135 0)
(0.539506 -0.2096 0)
(0.513741 -0.211248 0)
(0.486223 -0.213406 0)
(0.45319 -0.215109 0)
(0.413186 -0.210939 0)
(0.366058 -0.205115 0)
(0.314273 -0.188946 0)
(0.257098 -0.156748 0)
(0.198876 -0.105091 0)
(0.125635 -0.0362901 0)
(0.0721023 0.0646266 0)
(0.0413802 0.198578 0)
(0.0511487 0.345638 0)
(0.138986 0.497721 0)
(0.268395 0.625575 0)
(0.436445 0.698364 0)
(0.592339 0.71596 0)
(0.71679 0.675252 0)
(0.780163 0.648917 0)
(0.866847 0.636702 0)
(0.954207 0.614475 0)
(1.02483 0.581019 0)
(1.07419 0.546193 0)
(1.12256 0.515257 0)
(1.15014 0.485041 0)
(1.16824 0.4564 0)
(1.18254 0.429796 0)
(1.19074 0.406107 0)
(1.19757 0.384025 0)
(1.19807 0.365558 0)
(1.19646 0.348978 0)
(1.19549 0.332903 0)
(1.19382 0.317685 0)
(1.19208 0.303197 0)
(1.18789 0.29019 0)
(1.18276 0.278291 0)
(1.17842 0.266773 0)
(1.17385 0.255827 0)
(1.16936 0.245504 0)
(1.1665 0.235283 0)
(1.16369 0.225541 0)
(1.16118 0.216204 0)
(1.15923 0.206969 0)
(1.15622 0.19823 0)
(1.15183 0.190143 0)
(1.14722 0.18265 0)
(1.14428 0.174947 0)
(1.14144 0.167566 0)
(1.13987 0.160033 0)
(1.14281 0.151418 0)
(1.14358 0.143592 0)
(1.14016 0.13728 0)
(1.13663 0.131383 0)
(1.13244 0.125905 0)
(1.12746 0.120906 0)
(1.12309 0.115884 0)
(1.11861 0.110976 0)
(1.11378 0.106168 0)
(1.10828 0.10173 0)
(1.10514 0.096708 0)
(1.10866 0.0894711 0)
(1.10906 0.083026 0)
(1.11088 0.0762062 0)
(1.1105 0.0701853 0)
(1.10732 0.0652925 0)
(1.10362 0.0608389 0)
(1.10067 0.0561067 0)
(1.09708 0.0518498 0)
(1.09538 0.04679 0)
(1.09247 0.0423746 0)
(1.09166 0.0369628 0)
(1.08904 0.0324195 0)
(1.08933 0.0264439 0)
(1.08626 0.0218631 0)
(1.08488 0.0162416 0)
(1.08037 0.0123548 0)
(1.08395 0.00444354 0)
(1.07175 0.00253563 0)
(1.06783 -0.00141301 0)
(1.07571 -0.0110354 0)
(1.06843 -0.0144932 0)
(1.06707 -0.0204008 0)
(1.04865 -0.0222008 0)
(0.95651 -0.0198526 0)
(0.798475 -0.0196499 0)
(0.68819 -0.0282861 0)
(0.651646 -0.0343455 0)
(0.642989 -0.0390071 0)
(0.640522 -0.0424677 0)
(0.638021 -0.0462192 0)
(0.633548 -0.0490783 0)
(0.62803 -0.0518487 0)
(0.620377 -0.0539766 0)
(0.611675 -0.0561269 0)
(0.601586 -0.0573524 0)
(0.591926 -0.0591628 0)
(0.578723 -0.0620891 0)
(0.558454 -0.0641336 0)
(0.541225 -0.0601824 0)
(0.535037 -0.0585923 0)
(0.527865 -0.0617226 0)
(0.510544 -0.0643983 0)
(0.490382 -0.0622697 0)
(0.479991 -0.0588791 0)
(0.472005 -0.0594221 0)
(0.459697 -0.0610266 0)
(0.444002 -0.0606528 0)
(0.428492 -0.0584981 0)
(0.414465 -0.0573659 0)
(0.400372 -0.0562953 0)
(0.385889 -0.0550066 0)
(0.371087 -0.0534945 0)
(0.356137 -0.0519717 0)
(0.340922 -0.050157 0)
(0.325688 -0.0479676 0)
(0.310793 -0.0459759 0)
(0.296122 -0.0440872 0)
(0.281581 -0.0421796 0)
(0.267189 -0.0402136 0)
(0.25304 -0.0382184 0)
(0.23918 -0.0362373 0)
(0.225596 -0.0342361 0)
(0.21233 -0.0322333 0)
(0.199415 -0.0302969 0)
(0.186905 -0.0284452 0)
(0.174838 -0.0266199 0)
(0.163171 -0.0247995 0)
(0.151843 -0.0229513 0)
(0.140901 -0.021149 0)
(0.130428 -0.01948 0)
(0.120473 -0.0179705 0)
(0.110922 -0.0165027 0)
(0.101643 -0.0150234 0)
(0.0926689 -0.0135341 0)
(0.0842294 -0.0121765 0)
(0.0764819 -0.0110442 0)
(0.0694728 -0.0100968 0)
(0.063173 -0.00929465 0)
(0.0575539 -0.00861666 0)
(0.05257 -0.00805303 0)
(0.0482132 -0.00758301 0)
(0.0444882 -0.00720325 0)
(0.0413598 -0.00690596 0)
(0.0387486 -0.00666326 0)
(0.0365384 -0.00643183 0)
(0.0346194 -0.00620747 0)
(0.0329097 -0.00598491 0)
(0.031366 -0.0057485 0)
(0.0299987 -0.00552684 0)
(0.0288001 -0.0053269 0)
(0.0277497 -0.0051482 0)
(0.0268086 -0.00498594 0)
(0.025955 -0.00486799 0)
(0.0252447 -0.00488451 0)
(0.0248043 -0.00512924 0)
(0.0248998 -0.00584173 0)
(0.0255965 -0.00736901 0)
(0.0270886 -0.0100628 0)
(0.0298849 -0.0141361 0)
(0.0346008 -0.0197173 0)
(0.0423445 -0.0270561 0)
(0.0529744 -0.0373951 0)
(0.0644981 -0.0498505 0)
(0.0793489 -0.0583568 0)
(0.0886647 -0.0661556 0)
(0.111109 -0.043813 0)
(0.157977 -0.0174845 0)
(0.212127 -0.00107467 0)
(0.268761 0.00477582 0)
(0.327843 0.00919755 0)
(0.39063 0.0099899 0)
(0.45526 0.0100492 0)
(0.518671 0.0102854 0)
(0.580738 0.00963527 0)
(0.639524 0.00876533 0)
(0.692031 0.00761229 0)
(0.736002 0.00636731 0)
(0.770736 0.00523975 0)
(0.795233 0.00451421 0)
(0.81113 0.00458553 0)
(0.821915 0.00566947 0)
(0.830175 0.00767153 0)
(0.837179 0.0103294 0)
(0.843297 0.0133536 0)
(0.848472 0.0165547 0)
(0.852701 0.0197539 0)
(0.855999 0.0228623 0)
(0.858569 0.0257725 0)
(0.860482 0.0284835 0)
(0.861992 0.0309266 0)
(0.863099 0.0331993 0)
(0.864026 0.0353507 0)
(0.864532 0.0374645 0)
(0.864702 0.0396174 0)
(0.864139 0.0417027 0)
(0.863007 0.0435436 0)
(0.861302 0.0448403 0)
(0.861291 0.0448388 0)
(0.863006 0.0435416 0)
(0.864136 0.0417008 0)
(0.864698 0.0396157 0)
(0.864525 0.037463 0)
(0.864017 0.0353502 0)
(0.863089 0.0331994 0)
(0.861978 0.0309273 0)
(0.860462 0.0284855 0)
(0.85854 0.0257777 0)
(0.855956 0.0228732 0)
(0.852639 0.019775 0)
(0.848388 0.016594 0)
(0.843177 0.0134212 0)
(0.837024 0.0104397 0)
(0.830063 0.00784112 0)
(0.822221 0.00590444 0)
(0.812955 0.00488733 0)
(0.801112 0.00485807 0)
(0.784797 0.0056265 0)
(0.763017 0.0067458 0)
(0.73733 0.00788769 0)
(0.709432 0.0085394 0)
(0.681178 0.00810001 0)
(0.654831 0.00660946 0)
(0.632178 0.00428871 0)
(0.613836 0.000739207 0)
(0.599477 -0.00435942 0)
(0.588329 -0.0113675 0)
(0.579376 -0.0196896 0)
(0.570709 -0.0276623 0)
(0.560328 -0.0319585 0)
(0.552685 -0.0307638 0)
(0.545844 -0.0293934 0)
(0.541352 -0.0259265 0)
(0.537616 -0.0243359 0)
(0.534232 -0.0230308 0)
(0.530722 -0.0220271 0)
(0.527249 -0.020884 0)
(0.523769 -0.0198695 0)
(0.520534 -0.01861 0)
(0.517389 -0.0175516 0)
(0.514277 -0.0164463 0)
(0.511252 -0.0153822 0)
(0.508069 -0.0144036 0)
(0.504873 -0.0132836 0)
(0.501654 -0.0121352 0)
(0.498805 -0.0107451 0)
(0.49576 -0.00971292 0)
(0.492728 -0.00838504 0)
(0.490014 -0.00695702 0)
(0.487273 -0.00573536 0)
(0.484098 -0.00452195 0)
(0.480931 -0.0027197 0)
(0.479369 -0.000409584 0)
(0.478173 0.00100664 0)
(0.476524 0.00176541 0)
(0.47404 0.00271033 0)
(0.470944 0.00408998 0)
(0.468823 0.00627196 0)
(0.467196 0.00801077 0)
(0.465057 0.00938832 0)
(0.463444 0.0116043 0)
(0.462912 0.0137558 0)
(0.46212 0.0154094 0)
(0.461428 0.0172898 0)
(0.461388 0.0192656 0)
(0.461874 0.0209876 0)
(0.461951 0.0227649 0)
(0.462308 0.0246027 0)
(0.463183 0.0263286 0)
(0.463969 0.028188 0)
(0.465135 0.0301413 0)
(0.466906 0.031902 0)
(0.468579 0.0337411 0)
(0.470448 0.0356717 0)
(0.472753 0.0374872 0)
(0.475104 0.0395066 0)
(0.478043 0.0414255 0)
(0.481179 0.0431697 0)
(0.484173 0.0450647 0)
(0.487367 0.0470373 0)
(0.490891 0.0491915 0)
(0.495068 0.0513705 0)
(0.499712 0.0533093 0)
(0.50432 0.0553602 0)
(0.509244 0.0573688 0)
(0.514274 0.059352 0)
(0.519335 0.0615062 0)
(0.524791 0.063911 0)
(0.531096 0.0664973 0)
(0.538262 0.0688189 0)
(0.545518 0.0711111 0)
(0.553105 0.0733315 0)
(0.561103 0.0755272 0)
(0.569651 0.0776192 0)
(0.578533 0.079582 0)
(0.587579 0.0815449 0)
(0.597156 0.0835102 0)
(0.607311 0.0854854 0)
(0.617881 0.0872327 0)
(0.627952 0.0891034 0)
(0.638356 0.0915533 0)
(0.654393 0.094799 0)
(0.671775 0.0934333 0)
(0.680446 0.0912439 0)
(0.687558 0.0926895 0)
(0.699883 0.094741 0)
(0.715623 0.0947961 0)
(0.73038 0.0948874 0)
(0.74501 0.0938685 0)
(0.759226 0.0926125 0)
(0.773379 0.0909157 0)
(0.789315 0.0892446 0)
(0.805151 0.0857599 0)
(0.820265 0.0821328 0)
(0.83413 0.0776336 0)
(0.849226 0.0737351 0)
(0.861803 0.0671209 0)
(0.875144 0.0610505 0)
(0.884498 0.0528639 0)
(0.897525 0.0461081 0)
(0.902748 0.0356527 0)
(0.912476 0.0277527 0)
(0.909949 0.0158745 0)
(0.912765 0.00887894 0)
(0.911725 -0.00117049 0)
(0.905372 -0.00915921 0)
(0.906266 -0.0152793 0)
(0.900382 -0.0244831 0)
(0.895382 -0.0302281 0)
(0.889386 -0.0371634 0)
(0.883716 -0.0416243 0)
(0.879765 -0.0469523 0)
(0.875225 -0.0518276 0)
(0.86928 -0.0572912 0)
(0.863526 -0.0614356 0)
(0.858887 -0.0657263 0)
(0.854173 -0.0693841 0)
(0.850513 -0.0731985 0)
(0.846711 -0.0772333 0)
(0.842202 -0.0815588 0)
(0.836636 -0.0850969 0)
(0.83199 -0.0885469 0)
(0.827569 -0.092164 0)
(0.823168 -0.0958405 0)
(0.818995 -0.0997715 0)
(0.814368 -0.104053 0)
(0.809016 -0.108462 0)
(0.803192 -0.112256 0)
(0.797317 -0.116388 0)
(0.791365 -0.120659 0)
(0.785218 -0.124801 0)
(0.778349 -0.129124 0)
(0.771097 -0.133373 0)
(0.76358 -0.137721 0)
(0.755499 -0.142054 0)
(0.746906 -0.146483 0)
(0.737426 -0.150647 0)
(0.727626 -0.154182 0)
(0.718486 -0.157898 0)
(0.709044 -0.162549 0)
(0.698196 -0.167552 0)
(0.686236 -0.172442 0)
(0.67328 -0.177395 0)
(0.658935 -0.182165 0)
(0.643382 -0.186375 0)
(0.627151 -0.190077 0)
(0.610259 -0.194221 0)
(0.591213 -0.199107 0)
(0.569133 -0.203017 0)
(0.544666 -0.205113 0)
(0.518603 -0.205431 0)
(0.490405 -0.205454 0)
(0.45724 -0.204063 0)
(0.418806 -0.198048 0)
(0.375177 -0.189777 0)
(0.325049 -0.168196 0)
(0.271294 -0.131747 0)
(0.222108 -0.0813241 0)
(0.163828 -0.0160813 0)
(0.125887 0.0734865 0)
(0.102824 0.189926 0)
(0.114045 0.321876 0)
(0.18611 0.461041 0)
(0.295194 0.574412 0)
(0.439995 0.645739 0)
(0.587823 0.682477 0)
(0.703714 0.661485 0)
(0.778599 0.64568 0)
(0.862339 0.633104 0)
(0.946795 0.6128 0)
(1.01854 0.583733 0)
(1.07056 0.552081 0)
(1.12179 0.521317 0)
(1.15359 0.491245 0)
(1.17467 0.463317 0)
(1.19153 0.437482 0)
(1.20228 0.414185 0)
(1.21154 0.392426 0)
(1.21514 0.373884 0)
(1.21553 0.357184 0)
(1.21604 0.341206 0)
(1.21581 0.32599 0)
(1.21526 0.311407 0)
(1.21241 0.29807 0)
(1.20819 0.285821 0)
(1.2045 0.274161 0)
(1.2007 0.263104 0)
(1.19682 0.252611 0)
(1.19449 0.242245 0)
(1.19236 0.232298 0)
(1.19047 0.2228 0)
(1.18917 0.213482 0)
(1.18702 0.2047 0)
(1.18374 0.19663 0)
(1.18017 0.189148 0)
(1.17842 0.181513 0)
(1.17691 0.174097 0)
(1.17668 0.166592 0)
(1.18059 0.157988 0)
(1.18273 0.149963 0)
(1.18083 0.143441 0)
(1.17847 0.137383 0)
(1.17541 0.131764 0)
(1.17145 0.126627 0)
(1.16798 0.12148 0)
(1.16444 0.116437 0)
(1.16062 0.111507 0)
(1.15608 0.106869 0)
(1.15371 0.101723 0)
(1.15775 0.0943473 0)
(1.15923 0.0876391 0)
(1.16188 0.0805726 0)
(1.16256 0.0742843 0)
(1.16055 0.0691414 0)
(1.15784 0.0644653 0)
(1.15589 0.0595584 0)
(1.15322 0.0550651 0)
(1.15241 0.0498482 0)
(1.15035 0.0451793 0)
(1.15035 0.0395741 0)
(1.14848 0.0347468 0)
(1.14947 0.0285327 0)
(1.14709 0.0236755 0)
(1.14659 0.0177493 0)
(1.14248 0.0136276 0)
(1.14676 0.00526523 0)
(1.1362 0.00301723 0)
(1.1323 -0.00120377 0)
(1.14042 -0.0112366 0)
(1.13418 -0.0150503 0)
(1.13345 -0.0213615 0)
(1.11638 -0.0225625 0)
(1.03241 -0.0164174 0)
(0.886288 -0.0139216 0)
(0.780544 -0.025264 0)
(0.74082 -0.0347694 0)
(0.727973 -0.0407537 0)
(0.721581 -0.0446578 0)
(0.715711 -0.0477971 0)
(0.708372 -0.0503275 0)
(0.700451 -0.052961 0)
(0.690899 -0.0553221 0)
(0.680578 -0.0575901 0)
(0.669208 -0.0593649 0)
(0.658474 -0.0611819 0)
(0.644221 -0.0631945 0)
(0.624175 -0.0651325 0)
(0.605474 -0.062798 0)
(0.598128 -0.0616343 0)
(0.590137 -0.0637609 0)
(0.572787 -0.0659136 0)
(0.55269 -0.0645002 0)
(0.540772 -0.0620721 0)
(0.532354 -0.0622035 0)
(0.519648 -0.0633963 0)
(0.503246 -0.0631935 0)
(0.487758 -0.0617833 0)
(0.473546 -0.0608303 0)
(0.45914 -0.0598916 0)
(0.444343 -0.0588416 0)
(0.429299 -0.0576297 0)
(0.413974 -0.056307 0)
(0.398352 -0.0547731 0)
(0.382975 -0.052909 0)
(0.367873 -0.0511027 0)
(0.352766 -0.0493376 0)
(0.337587 -0.0475352 0)
(0.322419 -0.0456695 0)
(0.307388 -0.0437448 0)
(0.292529 -0.0418027 0)
(0.277909 -0.039818 0)
(0.263622 -0.0378074 0)
(0.249693 -0.0358306 0)
(0.236121 -0.0339039 0)
(0.222944 -0.0319853 0)
(0.210175 -0.0300675 0)
(0.19785 -0.0281222 0)
(0.186014 -0.0262286 0)
(0.174684 -0.0244526 0)
(0.163803 -0.0228171 0)
(0.153276 -0.0212188 0)
(0.14306 -0.0196381 0)
(0.133263 -0.0180896 0)
(0.124024 -0.0166644 0)
(0.115399 -0.0154512 0)
(0.10739 -0.0144463 0)
(0.0999693 -0.0135937 0)
(0.0931279 -0.0128605 0)
(0.0868471 -0.0122404 0)
(0.0811332 -0.0117053 0)
(0.0760155 -0.0112449 0)
(0.071474 -0.010845 0)
(0.0674585 -0.0104973 0)
(0.0638837 -0.0101616 0)
(0.0606797 -0.00983826 0)
(0.0577797 -0.0095088 0)
(0.0551622 -0.00917351 0)
(0.0528184 -0.00885161 0)
(0.0507464 -0.00856117 0)
(0.0489109 -0.00829097 0)
(0.0472742 -0.00806072 0)
(0.0458252 -0.00794799 0)
(0.0445878 -0.00808781 0)
(0.0436399 -0.00865278 0)
(0.0432508 -0.00980454 0)
(0.0433761 -0.0117903 0)
(0.0438677 -0.0150456 0)
(0.0448782 -0.0200545 0)
(0.0466405 -0.0273542 0)
(0.0494191 -0.0372869 0)
(0.0532836 -0.0489114 0)
(0.056157 -0.058988 0)
(0.0573964 -0.062882 0)
(0.0582067 -0.0606748 0)
(0.0650157 -0.0478338 0)
(0.0875665 -0.0298908 0)
(0.124489 -0.0113237 0)
(0.171861 -6.84463e-05 0)
(0.227837 0.0068844 0)
(0.297386 0.0108767 0)
(0.377807 0.0113907 0)
(0.461149 0.0103624 0)
(0.53975 0.00998281 0)
(0.611937 0.00891071 0)
(0.674783 0.00752793 0)
(0.726027 0.00623641 0)
(0.765577 0.00509536 0)
(0.793022 0.00440047 0)
(0.81041 0.00452065 0)
(0.821777 0.00561202 0)
(0.830192 0.00762795 0)
(0.837219 0.0103006 0)
(0.843328 0.0133364 0)
(0.848494 0.016545 0)
(0.852717 0.0197483 0)
(0.85601 0.0228598 0)
(0.858578 0.0257713 0)
(0.860487 0.028483 0)
(0.861995 0.0309263 0)
(0.863102 0.0331999 0)
(0.864027 0.0353514 0)
(0.864533 0.0374641 0)
(0.864702 0.039618 0)
(0.86414 0.0417032 0)
(0.863008 0.0435441 0)
(0.861299 0.0448401 0)
(0.861292 0.0448384 0)
(0.863005 0.0435412 0)
(0.864135 0.0417003 0)
(0.864698 0.0396154 0)
(0.864523 0.0374625 0)
(0.864016 0.0353505 0)
(0.863087 0.0331993 0)
(0.861974 0.0309272 0)
(0.860457 0.028486 0)
(0.858533 0.025779 0)
(0.855946 0.0228761 0)
(0.852625 0.0197805 0)
(0.848366 0.0166025 0)
(0.84315 0.0134374 0)
(0.836984 0.0104664 0)
(0.830029 0.0078815 0)
(0.822257 0.00596113 0)
(0.813229 0.004962 0)
(0.802031 0.00494952 0)
(0.787086 0.00572366 0)
(0.767478 0.00684976 0)
(0.744681 0.0079391 0)
(0.720387 0.00851959 0)
(0.696129 0.00795342 0)
(0.673824 0.00616528 0)
(0.654997 0.00339854 0)
(0.63996 -0.000716434 0)
(0.628006 -0.00624416 0)
(0.618048 -0.013109 0)
(0.608937 -0.0201507 0)
(0.599363 -0.0256881 0)
(0.589029 -0.028211 0)
(0.580633 -0.0273243 0)
(0.573626 -0.027122 0)
(0.568463 -0.0248794 0)
(0.564344 -0.023467 0)
(0.560701 -0.0223216 0)
(0.557122 -0.0214007 0)
(0.553721 -0.0202999 0)
(0.55032 -0.0193185 0)
(0.547116 -0.0181511 0)
(0.543979 -0.0171536 0)
(0.540895 -0.0160782 0)
(0.537872 -0.0150664 0)
(0.534755 -0.0140859 0)
(0.531689 -0.0129224 0)
(0.528564 -0.0117934 0)
(0.52574 -0.0104442 0)
(0.522757 -0.00942379 0)
(0.519839 -0.00802766 0)
(0.517141 -0.00664218 0)
(0.514417 -0.00543923 0)
(0.511477 -0.00416453 0)
(0.508611 -0.00241407 0)
(0.506898 -0.000318036 0)
(0.505479 0.00112466 0)
(0.503747 0.00208462 0)
(0.501385 0.00305352 0)
(0.498594 0.00455827 0)
(0.496563 0.00665101 0)
(0.494967 0.00843909 0)
(0.492996 0.0098304 0)
(0.49149 0.0119939 0)
(0.490939 0.0141706 0)
(0.490175 0.0159798 0)
(0.489667 0.0179332 0)
(0.489644 0.0199508 0)
(0.490061 0.0218042 0)
(0.490253 0.0236041 0)
(0.490721 0.0255921 0)
(0.491593 0.0275433 0)
(0.492465 0.0295667 0)
(0.49374 0.0316515 0)
(0.495514 0.0335629 0)
(0.497239 0.0355587 0)
(0.499204 0.0376284 0)
(0.501563 0.0395946 0)
(0.503992 0.0417763 0)
(0.506993 0.0438198 0)
(0.510164 0.0456636 0)
(0.51323 0.0476849 0)
(0.516512 0.049794 0)
(0.520117 0.0521152 0)
(0.524351 0.0544274 0)
(0.529027 0.056458 0)
(0.533687 0.0586649 0)
(0.538673 0.0607513 0)
(0.543774 0.0627825 0)
(0.548933 0.065049 0)
(0.554505 0.0675971 0)
(0.560917 0.0702415 0)
(0.568155 0.0724325 0)
(0.575476 0.0747116 0)
(0.583114 0.0769617 0)
(0.591138 0.0792837 0)
(0.599673 0.081563 0)
(0.608535 0.0835394 0)
(0.617562 0.0856718 0)
(0.627072 0.0876733 0)
(0.637095 0.0897877 0)
(0.647526 0.0914205 0)
(0.657733 0.0931242 0)
(0.668441 0.0958801 0)
(0.684087 0.0996135 0)
(0.700633 0.0981252 0)
(0.709512 0.0946227 0)
(0.717107 0.0958604 0)
(0.729533 0.0990478 0)
(0.744718 0.099001 0)
(0.75916 0.0991545 0)
(0.773511 0.0980769 0)
(0.787535 0.0967139 0)
(0.801509 0.094892 0)
(0.817123 0.0932435 0)
(0.832555 0.0894612 0)
(0.847191 0.085537 0)
(0.860558 0.0807366 0)
(0.875721 0.07602 0)
(0.887868 0.0687222 0)
(0.900736 0.0622698 0)
(0.909516 0.0539286 0)
(0.92168 0.0469274 0)
(0.926414 0.0363281 0)
(0.935093 0.0281301 0)
(0.932423 0.016236 0)
(0.934542 0.00890154 0)
(0.932746 -0.00120449 0)
(0.926527 -0.00946228 0)
(0.926251 -0.0156938 0)
(0.91994 -0.0248863 0)
(0.914375 -0.0308292 0)
(0.907575 -0.0377868 0)
(0.901416 -0.042459 0)
(0.896649 -0.0478078 0)
(0.891761 -0.0527295 0)
(0.885521 -0.0581207 0)
(0.879518 -0.0622038 0)
(0.874268 -0.0663039 0)
(0.869101 -0.0698615 0)
(0.864833 -0.0735947 0)
(0.86053 -0.0776032 0)
(0.855556 -0.0819582 0)
(0.849647 -0.0856887 0)
(0.844619 -0.0890514 0)
(0.839772 -0.0926946 0)
(0.83492 -0.0963795 0)
(0.830249 -0.100295 0)
(0.825135 -0.104528 0)
(0.819338 -0.108874 0)
(0.813019 -0.112863 0)
(0.806845 -0.116819 0)
(0.800427 -0.12092 0)
(0.793705 -0.125169 0)