/*--------------------------------*- C++ -*----------------------------------*\
| =========                 |                                                 |
| \\      /  F ield         | OpenFOAM: The Open Source CFD Toolbox           |
|  \\    /   O peration     | Version:  v2006                                 |
|   \\  /    A nd           | Website:  www.openfoam.com                      |
|    \\/     M anipulation  |                                                 |
\*---------------------------------------------------------------------------*/
FoamFile
{
    version     2.0;
    format      ascii;
    class       volSymmTensorField;
    location    "185";
    object      UPrime2Mean;
}
// * * * * * * * * * * * * * * * * * * * * * * * * * * * * * * * * * * * * * //

dimensions      [0 2 -2 0 0 0 0];


internalField   nonuniform List<symmTensor> 
93840
(
(2.89304e-06 3.69284e-06 0 4.71526e-06 0 0)
(4.01262e-06 3.79291e-06 0 3.59101e-06 0 0)
(4.99665e-06 3.54392e-06 0 2.52001e-06 0 0)
(5.45369e-06 3.00853e-06 0 1.66566e-06 0 0)
(5.40733e-06 2.3618e-06 0 1.037e-06 0 0)
(5.11125e-06 1.83475e-06 0 6.65353e-07 0 0)
(4.72636e-06 1.44899e-06 0 4.49968e-07 0 0)
(4.41026e-06 1.19945e-06 0 3.31228e-07 0 0)
(4.12235e-06 1.03852e-06 0 2.67289e-07 0 0)
(3.89482e-06 9.35558e-07 0 2.32315e-07 0 0)
(3.67843e-06 8.71154e-07 0 2.16005e-07 0 0)
(3.4825e-06 8.40405e-07 0 2.16111e-07 0 0)
(3.25818e-06 8.17915e-07 0 2.25492e-07 0 0)
(3.02365e-06 8.46672e-07 0 2.72088e-07 0 0)
(2.82357e-06 8.86905e-07 0 3.49674e-07 0 0)
(2.6211e-06 9.58733e-07 0 5.10547e-07 0 0)
(2.52017e-06 1.09591e-06 0 8.11073e-07 0 0)
(2.72773e-06 1.41727e-06 0 1.34615e-06 0 0)
(3.55038e-06 2.03061e-06 0 2.08711e-06 0 0)
(5.68447e-06 3.37154e-06 0 3.25557e-06 0 0)
(9.47583e-06 5.29627e-06 0 4.26181e-06 0 0)
(1.49963e-05 8.1086e-06 0 6.70908e-06 0 0)
(2.26503e-05 1.06918e-05 0 7.5148e-06 0 0)
(3.12797e-05 1.25262e-05 0 6.90575e-06 0 0)
(3.86726e-05 1.23247e-05 0 5.59434e-06 0 0)
(4.29173e-05 1.13707e-05 0 4.8355e-06 0 0)
(4.52511e-05 8.99659e-06 0 3.54067e-06 0 0)
(4.57257e-05 7.26621e-06 0 3.55636e-06 0 0)
(4.22446e-05 5.35618e-06 0 2.93139e-06 0 0)
(3.94242e-05 2.74315e-06 0 1.58226e-06 0 0)
(3.52642e-05 7.32094e-07 0 7.04884e-07 0 0)
(2.94729e-05 4.38316e-07 0 2.16884e-07 0 0)
(3.17402e-05 -4.39636e-07 0 4.99783e-08 0 0)
(2.78947e-05 -9.40031e-07 0 7.73193e-08 0 0)
(2.5188e-05 -7.90249e-07 0 6.2605e-08 0 0)
(2.28877e-05 -4.92601e-07 0 3.46542e-08 0 0)
(2.11742e-05 -7.9606e-07 0 4.56958e-08 0 0)
(1.98584e-05 -7.37969e-07 0 4.9764e-08 0 0)
(1.84796e-05 -6.64714e-07 0 4.43684e-08 0 0)
(1.72396e-05 -5.92666e-07 0 3.67502e-08 0 0)
(1.62527e-05 -5.20226e-07 0 3.07493e-08 0 0)
(1.53183e-05 -4.58018e-07 0 2.61307e-08 0 0)
(1.44489e-05 -3.87875e-07 0 2.08276e-08 0 0)
(1.36873e-05 -3.55818e-07 0 1.80362e-08 0 0)
(1.2954e-05 -3.4181e-07 0 1.85139e-08 0 0)
(1.22346e-05 -3.08033e-07 0 1.65404e-08 0 0)
(1.15216e-05 -2.5298e-07 0 1.35164e-08 0 0)
(1.09662e-05 -2.18022e-07 0 1.19645e-08 0 0)
(1.03884e-05 -1.94889e-07 0 1.18686e-08 0 0)
(9.75488e-06 -1.72177e-07 0 1.13624e-08 0 0)
(9.33115e-06 -1.59041e-07 0 1.42424e-08 0 0)
(8.85255e-06 -1.15239e-07 0 1.2846e-08 0 0)
(8.35804e-06 -9.05944e-08 0 1.31752e-08 0 0)
(7.77721e-06 -5.56452e-08 0 1.25985e-08 0 0)
(7.49977e-06 -1.5561e-08 0 1.41535e-08 0 0)
(7.10407e-06 8.91146e-09 0 1.40695e-08 0 0)
(6.80368e-06 3.48585e-09 0 1.1455e-08 0 0)
(6.44634e-06 5.41744e-08 0 1.31811e-08 0 0)
(6.08115e-06 6.40856e-08 0 1.42904e-08 0 0)
(5.6994e-06 7.81481e-08 0 1.86129e-08 0 0)
(5.44358e-06 8.75612e-08 0 2.21011e-08 0 0)
(5.16136e-06 1.07572e-07 0 2.32801e-08 0 0)
(4.86755e-06 1.30415e-07 0 2.42967e-08 0 0)
(4.62243e-06 1.01856e-07 0 2.96571e-08 0 0)
(4.43897e-06 1.17351e-07 0 3.86223e-08 0 0)
(4.22478e-06 1.31063e-07 0 4.01687e-08 0 0)
(4.04357e-06 1.6294e-07 0 3.58359e-08 0 0)
(3.87997e-06 1.51634e-07 0 3.43179e-08 0 0)
(3.62027e-06 1.39685e-07 0 5.1325e-08 0 0)
(3.52875e-06 1.73558e-07 0 3.87699e-08 0 0)
(3.38432e-06 1.66716e-07 0 4.45326e-08 0 0)
(3.2194e-06 1.72378e-07 0 4.84598e-08 0 0)
(3.10732e-06 1.79918e-07 0 4.92548e-08 0 0)
(2.99695e-06 1.86187e-07 0 4.97299e-08 0 0)
(2.87891e-06 1.90129e-07 0 5.13244e-08 0 0)
(2.78026e-06 1.96286e-07 0 5.32479e-08 0 0)
(2.69195e-06 2.02926e-07 0 5.51801e-08 0 0)
(2.60023e-06 2.07133e-07 0 5.59607e-08 0 0)
(2.51694e-06 2.11517e-07 0 5.77924e-08 0 0)
(2.42838e-06 2.12507e-07 0 5.85303e-08 0 0)
(2.33347e-06 2.11932e-07 0 5.95401e-08 0 0)
(2.2495e-06 2.17856e-07 0 6.03112e-08 0 0)
(2.18347e-06 2.30868e-07 0 5.97424e-08 0 0)
(2.14542e-06 2.44263e-07 0 6.11549e-08 0 0)
(2.12378e-06 2.52375e-07 0 6.31006e-08 0 0)
(2.09685e-06 2.45904e-07 0 6.1569e-08 0 0)
(2.07166e-06 2.35959e-07 0 6.23588e-08 0 0)
(2.03634e-06 2.22051e-07 0 6.51265e-08 0 0)
(1.98407e-06 2.14383e-07 0 7.06894e-08 0 0)
(1.92941e-06 2.20623e-07 0 7.86299e-08 0 0)
(1.89989e-06 2.36528e-07 0 8.5869e-08 0 0)
(1.90238e-06 2.59878e-07 0 9.5903e-08 0 0)
(1.92969e-06 2.77427e-07 0 8.4899e-08 0 0)
(1.97376e-06 2.70648e-07 0 6.78967e-08 0 0)
(2.02791e-06 2.65104e-07 0 6.88178e-08 0 0)
(2.09991e-06 2.79009e-07 0 7.27336e-08 0 0)
(2.15563e-06 2.97564e-07 0 7.92861e-08 0 0)
(2.22942e-06 3.17265e-07 0 8.00076e-08 0 0)
(2.31467e-06 3.32625e-07 0 8.34052e-08 0 0)
(2.41635e-06 3.51597e-07 0 8.69577e-08 0 0)
(2.53491e-06 3.78993e-07 0 9.76086e-08 0 0)
(2.64967e-06 3.9493e-07 0 1.20617e-07 0 0)
(2.76051e-06 4.16279e-07 0 1.24877e-07 0 0)
(2.91023e-06 4.47057e-07 0 9.90043e-08 0 0)
(3.18417e-06 4.50984e-07 0 7.88843e-08 0 0)
(3.09637e-06 4.21264e-07 0 6.28395e-08 0 0)
(3.03332e-06 4.19927e-07 0 6.7718e-08 0 0)
(3.10588e-06 4.37948e-07 0 7.94869e-08 0 0)
(3.36008e-06 4.57785e-07 0 7.31182e-08 0 0)
(3.54484e-06 4.71648e-07 0 7.04642e-08 0 0)
(3.65784e-06 4.67818e-07 0 6.47095e-08 0 0)
(3.80674e-06 4.69234e-07 0 6.16249e-08 0 0)
(3.96327e-06 4.71018e-07 0 5.97607e-08 0 0)
(4.271e-06 4.85906e-07 0 5.89473e-08 0 0)
(4.73363e-06 5.10282e-07 0 6.52699e-08 0 0)
(5.42665e-06 5.71781e-07 0 8.87897e-08 0 0)
(6.27109e-06 7.30048e-07 0 9.95697e-08 0 0)
(7.20362e-06 1.21336e-06 0 2.28408e-07 0 0)
(9.08758e-06 9.79175e-07 0 1.89559e-07 0 0)
(6.98592e-06 5.56451e-07 0 4.46047e-07 0 0)
(8.83898e-06 4.56683e-07 0 5.29865e-07 0 0)
(9.10215e-06 4.44849e-07 0 4.12548e-07 0 0)
(9.73578e-06 3.17936e-07 0 4.27931e-07 0 0)
(1.01188e-05 2.74145e-07 0 4.44375e-07 0 0)
(9.84616e-06 1.01983e-07 0 3.36995e-07 0 0)
(9.70361e-06 8.81147e-08 0 6.01157e-07 0 0)
(9.3165e-06 -6.49233e-08 0 3.80119e-07 0 0)
(8.5803e-06 -4.52282e-08 0 6.66675e-07 0 0)
(8.17329e-06 -1.31799e-07 0 4.97391e-07 0 0)
(7.09111e-06 -1.97598e-07 0 4.35438e-07 0 0)
(6.25746e-06 -1.17899e-07 0 6.87112e-07 0 0)
(5.93593e-06 -2.59015e-07 0 2.7e-07 0 0)
(5.97502e-06 -2.59945e-07 0 3.0307e-07 0 0)
(7.38196e-06 -1.31503e-08 0 6.55255e-08 0 0)
(7.78787e-06 2.95386e-07 0 5.7451e-08 0 0)
(6.865e-06 -2.41293e-07 0 3.62506e-08 0 0)
(5.26412e-06 1.56586e-07 0 3.4985e-08 0 0)
(4.451e-06 -3.49897e-08 0 8.24016e-09 0 0)
(5.36104e-06 -2.13283e-07 0 1.28337e-08 0 0)
(5.25103e-06 -3.89588e-07 0 3.41324e-08 0 0)
(4.98779e-06 -4.45133e-07 0 4.58692e-08 0 0)
(4.69103e-06 -4.33063e-07 0 5.30973e-08 0 0)
(4.67214e-06 -5.89395e-07 0 7.75216e-08 0 0)
(4.57515e-06 -5.07185e-07 0 5.82456e-08 0 0)
(4.44522e-06 -5.29738e-07 0 6.45611e-08 0 0)
(4.42531e-06 -5.53336e-07 0 7.06119e-08 0 0)
(4.35642e-06 -5.7099e-07 0 7.65681e-08 0 0)
(4.31225e-06 -5.7504e-07 0 7.9374e-08 0 0)
(4.25803e-06 -5.86861e-07 0 8.34751e-08 0 0)
(4.1252e-06 -5.91302e-07 0 8.83907e-08 0 0)
(4.17529e-06 -6.97337e-07 0 1.1909e-07 0 0)
(4.14834e-06 -6.99553e-07 0 1.22845e-07 0 0)
(4.02974e-06 -6.94485e-07 0 1.25262e-07 0 0)
(3.96743e-06 -7.03e-07 0 1.27652e-07 0 0)
(3.91661e-06 -7.22533e-07 0 1.36764e-07 0 0)
(3.86381e-06 -7.42772e-07 0 1.46367e-07 0 0)
(3.80703e-06 -7.62646e-07 0 1.56345e-07 0 0)
(3.74818e-06 -7.82597e-07 0 1.66167e-07 0 0)
(3.68608e-06 -8.01274e-07 0 1.75586e-07 0 0)
(3.6351e-06 -8.21556e-07 0 1.86897e-07 0 0)
(3.6186e-06 -8.50569e-07 0 2.01374e-07 0 0)
(3.59437e-06 -8.91012e-07 0 2.2255e-07 0 0)
(3.57002e-06 -9.31421e-07 0 2.44786e-07 0 0)
(3.53792e-06 -9.67868e-07 0 2.66124e-07 0 0)
(3.50069e-06 -1.00629e-06 0 2.90001e-07 0 0)
(3.45944e-06 -1.04663e-06 0 3.16813e-07 0 0)
(3.41235e-06 -1.08389e-06 0 3.44315e-07 0 0)
(3.37194e-06 -1.12035e-06 0 3.72323e-07 0 0)
(3.33904e-06 -1.16942e-06 0 4.09717e-07 0 0)
(3.30724e-06 -1.23208e-06 0 4.59119e-07 0 0)
(3.2516e-06 -1.30152e-06 0 5.21146e-07 0 0)
(3.19288e-06 -1.35443e-06 0 5.74579e-07 0 0)
(3.11706e-06 -1.40553e-06 0 6.33801e-07 0 0)
(3.06979e-06 -1.46614e-06 0 7.00243e-07 0 0)
(2.99197e-06 -1.54818e-06 0 8.01111e-07 0 0)
(2.77279e-06 -1.61336e-06 0 9.38752e-07 0 0)
(2.6754e-06 -1.78349e-06 0 1.18892e-06 0 0)
(2.79466e-06 -2.14797e-06 0 1.65098e-06 0 0)
(2.71057e-06 -2.4338e-06 0 2.18582e-06 0 0)
(3.18297e-06 -2.81066e-06 0 2.49329e-06 0 0)
(3.55561e-06 -3.14601e-06 0 2.79803e-06 0 0)
(2.84228e-07 -1.04974e-06 0 3.98764e-06 0 0)
(4.41737e-07 -1.26878e-06 0 3.64541e-06 0 0)
(1.12262e-07 -5.85687e-07 0 3.05775e-06 0 0)
(1.9822e-09 7.44467e-08 0 3.09837e-06 0 0)
(1.1402e-07 5.61809e-07 0 2.77636e-06 0 0)
(3.61121e-07 1.01485e-06 0 2.93844e-06 0 0)
(1.22831e-06 1.37266e-06 0 1.54875e-06 0 0)
(1.2232e-06 1.19115e-06 0 1.18523e-06 0 0)
(6.86096e-07 6.90649e-07 0 8.13674e-07 0 0)
(7.79943e-07 3.18661e-07 0 9.57888e-07 0 0)
(1.22386e-06 3.98064e-07 0 1.19881e-06 0 0)
(1.11653e-06 3.57097e-07 0 9.13782e-07 0 0)
(1.37977e-06 3.62624e-08 0 1.4236e-06 0 0)
(1.21889e-06 -2.70313e-07 0 2.55604e-06 0 0)
(1.25841e-06 -2.96027e-07 0 4.92641e-06 0 0)
(1.96583e-06 -1.79188e-07 0 8.6548e-06 0 0)
(2.70799e-06 -5.35459e-07 0 1.64957e-05 0 0)
(3.17868e-06 -2.00932e-06 0 2.34418e-05 0 0)
(3.37429e-06 -3.89392e-06 0 3.06991e-05 0 0)
(3.09149e-06 -4.67512e-06 0 3.19101e-05 0 0)
(3.2319e-06 -4.79911e-06 0 3.05537e-05 0 0)
(3.29733e-06 -3.4552e-06 0 2.45803e-05 0 0)
(3.41605e-06 -1.52378e-06 0 1.69991e-05 0 0)
(3.50763e-06 1.7764e-08 0 9.4123e-06 0 0)
(3.05239e-06 3.69836e-07 0 4.57574e-06 0 0)
(2.75811e-06 2.87079e-07 0 2.62146e-06 0 0)
(2.34918e-06 3.31683e-07 0 1.87894e-06 0 0)
(1.78208e-06 2.55186e-07 0 1.3787e-06 0 0)
(1.24325e-06 1.45685e-07 0 1.05768e-06 0 0)
(9.38073e-07 9.80777e-08 0 8.31076e-07 0 0)
(8.28438e-07 8.39042e-08 0 6.99333e-07 0 0)
(8.33503e-07 9.16055e-08 0 6.6491e-07 0 0)
(9.91319e-07 1.19209e-07 0 7.55539e-07 0 0)
(1.46621e-06 1.24652e-07 0 9.73397e-07 0 0)
(2.64355e-06 1.92444e-07 0 1.26482e-06 0 0)
(5.17435e-06 4.75091e-07 0 1.68537e-06 0 0)
(8.53892e-06 1.00333e-06 0 2.09628e-06 0 0)
(1.17821e-05 1.47303e-06 0 2.39381e-06 0 0)
(1.34037e-05 1.77605e-06 0 2.52988e-06 0 0)
(1.32757e-05 1.71256e-06 0 2.49186e-06 0 0)
(1.25802e-05 1.52803e-06 0 2.38376e-06 0 0)
(1.14379e-05 1.29378e-06 0 2.29657e-06 0 0)
(1.05559e-05 1.14139e-06 0 2.21022e-06 0 0)
(1.0086e-05 1.04459e-06 0 2.13475e-06 0 0)
(9.93641e-06 9.7749e-07 0 2.10565e-06 0 0)
(1.03117e-05 1.004e-06 0 2.09976e-06 0 0)
(1.12922e-05 1.08698e-06 0 2.12665e-06 0 0)
(1.28484e-05 1.23769e-06 0 2.14757e-06 0 0)
(1.46684e-05 1.36684e-06 0 2.2916e-06 0 0)
(1.59497e-05 1.50905e-06 0 2.341e-06 0 0)
(1.73491e-05 1.55179e-06 0 2.44566e-06 0 0)
(1.75146e-05 1.45997e-06 0 2.51025e-06 0 0)
(1.83094e-05 1.41387e-06 0 2.52945e-06 0 0)
(2.02673e-05 1.49725e-06 0 2.54647e-06 0 0)
(2.27025e-05 1.63319e-06 0 2.59071e-06 0 0)
(2.49079e-05 1.71887e-06 0 2.63937e-06 0 0)
(2.64304e-05 1.72812e-06 0 2.62627e-06 0 0)
(2.70395e-05 1.63053e-06 0 2.67317e-06 0 0)
(2.75605e-05 1.52928e-06 0 2.61543e-06 0 0)
(2.81652e-05 1.41155e-06 0 2.64931e-06 0 0)
(2.87583e-05 1.30454e-06 0 2.60127e-06 0 0)
(2.95616e-05 1.16586e-06 0 2.60167e-06 0 0)
(3.12831e-05 1.07674e-06 0 2.5851e-06 0 0)
(3.33959e-05 9.29141e-07 0 2.48061e-06 0 0)
(3.78201e-05 8.58195e-07 0 2.5158e-06 0 0)
(4.01243e-05 6.80704e-07 0 2.24994e-06 0 0)
(4.45403e-05 2.3268e-07 0 2.88802e-06 0 0)
(4.94956e-05 2.60233e-07 0 2.62827e-06 0 0)
(5.12878e-05 2.40768e-07 0 2.57487e-06 0 0)
(4.4479e-05 -4.41572e-07 0 2.95347e-06 0 0)
(5.57531e-05 3.73098e-08 0 2.4351e-06 0 0)
(5.87354e-05 -2.81772e-06 0 2.92206e-06 0 0)
(0.00104124 -7.60989e-05 0 8.92264e-06 0 0)
(0.00963115 -0.000368151 0 1.7274e-05 0 0)
(0.00801963 -0.000177314 0 5.60341e-06 0 0)
(0.000396805 3.6506e-06 0 1.49795e-06 0 0)
(0.00048109 -3.65507e-05 0 3.09743e-06 0 0)
(0.000848181 -5.25951e-05 0 3.33566e-06 0 0)
(0.000882616 -5.60792e-05 0 3.74746e-06 0 0)
(0.000830696 -5.61055e-05 0 4.10215e-06 0 0)
(0.000732367 -5.19994e-05 0 4.01648e-06 0 0)
(0.000649436 -5.05364e-05 0 4.22191e-06 0 0)
(0.000569232 -4.78255e-05 0 4.27943e-06 0 0)
(0.000506556 -4.50556e-05 0 4.26127e-06 0 0)
(0.000451758 -4.29468e-05 0 4.373e-06 0 0)
(0.000409456 -4.0741e-05 0 4.39882e-06 0 0)
(0.000380167 -3.93132e-05 0 4.34293e-06 0 0)
(0.000344869 -3.8553e-05 0 4.5988e-06 0 0)
(0.000322872 -3.61002e-05 0 4.53462e-06 0 0)
(0.000310945 -3.45625e-05 0 4.34979e-06 0 0)
(0.000306432 -3.59269e-05 0 4.54259e-06 0 0)
(0.000294369 -3.72999e-05 0 5.13549e-06 0 0)
(0.000286186 -3.61128e-05 0 5.17541e-06 0 0)
(0.000286506 -3.53571e-05 0 5.01199e-06 0 0)
(0.000292481 -3.6173e-05 0 4.94897e-06 0 0)
(0.000298307 -3.84391e-05 0 5.41689e-06 0 0)
(0.000297663 -3.93893e-05 0 5.78891e-06 0 0)
(0.000306161 -4.09153e-05 0 6.0993e-06 0 0)
(0.000315708 -4.26967e-05 0 6.32993e-06 0 0)
(0.00032687 -4.49312e-05 0 6.69574e-06 0 0)
(0.000339014 -4.74315e-05 0 7.15404e-06 0 0)
(0.000350985 -4.9948e-05 0 7.63497e-06 0 0)
(0.000361768 -5.23183e-05 0 8.08553e-06 0 0)
(0.000371999 -5.46416e-05 0 8.52842e-06 0 0)
(0.000382595 -5.66356e-05 0 8.85501e-06 0 0)
(0.000388946 -5.78187e-05 0 9.02794e-06 0 0)
(0.000389356 -5.82824e-05 0 9.12988e-06 0 0)
(0.000386198 -5.85037e-05 0 9.24034e-06 0 0)
(0.000382374 -5.87747e-05 0 9.38262e-06 0 0)
(0.000378894 -5.9085e-05 0 9.53021e-06 0 0)
(0.000375942 -5.94752e-05 0 9.69835e-06 0 0)
(0.000373082 -5.98652e-05 0 9.87619e-06 0 0)
(0.00036981 -6.01693e-05 0 1.00417e-05 0 0)
(0.000366107 -6.05136e-05 0 1.02389e-05 0 0)
(0.000362421 -6.09237e-05 0 1.04708e-05 0 0)
(0.000358512 -6.11925e-05 0 1.06697e-05 0 0)
(0.000352968 -6.0964e-05 0 1.07499e-05 0 0)
(0.000344378 -5.99677e-05 0 1.06568e-05 0 0)
(0.000333676 -5.85624e-05 0 1.04843e-05 0 0)
(0.000323827 -5.7433e-05 0 1.03867e-05 0 0)
(0.00031933 -5.7539e-05 0 1.05631e-05 0 0)
(0.000320724 -5.88902e-05 0 1.1001e-05 0 0)
(0.000323181 -6.00588e-05 0 1.13441e-05 0 0)
(0.00031731 -5.86505e-05 0 1.10312e-05 0 0)
(0.000297628 -5.36418e-05 0 9.87717e-06 0 0)
(0.000262858 -4.57719e-05 0 8.19723e-06 0 0)
(0.000216668 -3.63418e-05 0 6.32808e-06 0 0)
(0.000166154 -2.6778e-05 0 4.5371e-06 0 0)
(0.000117479 -1.79388e-05 0 2.9443e-06 0 0)
(7.52793e-05 -1.06781e-05 0 1.70784e-06 0 0)
(4.33745e-05 -5.64539e-06 0 9.23492e-07 0 0)
(2.2787e-05 -2.76769e-06 0 5.25164e-07 0 0)
(1.16014e-05 -1.42697e-06 0 3.66677e-07 0 0)
(6.42867e-06 -9.08262e-07 0 3.21431e-07 0 0)
(4.31301e-06 -7.16828e-07 0 3.12728e-07 0 0)
(3.43116e-06 -6.23924e-07 0 3.07206e-07 0 0)
(2.95503e-06 -5.60385e-07 0 2.99379e-07 0 0)
(2.62845e-06 -5.08274e-07 0 2.91786e-07 0 0)
(2.38305e-06 -4.62815e-07 0 2.84511e-07 0 0)
(2.19555e-06 -4.27713e-07 0 2.80262e-07 0 0)
(2.05548e-06 -4.00107e-07 0 2.79672e-07 0 0)
(1.95049e-06 -3.78422e-07 0 2.85977e-07 0 0)
(1.86544e-06 -3.63027e-07 0 2.95532e-07 0 0)
(1.79591e-06 -3.601e-07 0 3.07772e-07 0 0)
(1.71804e-06 -3.4341e-07 0 3.22391e-07 0 0)
(1.7528e-06 -3.8222e-07 0 3.59006e-07 0 0)
(2.07054e-06 -5.27263e-07 0 4.49433e-07 0 0)
(2.64206e-06 -7.18954e-07 0 5.86644e-07 0 0)
(3.48019e-06 -9.34981e-07 0 7.57862e-07 0 0)
(4.38289e-06 -1.05417e-06 0 9.23146e-07 0 0)
(5.03933e-06 -9.15454e-07 0 1.00368e-06 0 0)
(4.93255e-06 -5.086e-07 0 9.32651e-07 0 0)
(4.3998e-06 -2.54767e-07 0 6.59343e-07 0 0)
(3.39014e-06 4.4184e-08 0 7.48834e-07 0 0)
(2.23222e-06 -7.22536e-07 0 9.29299e-07 0 0)
(6.4082e-06 -4.78442e-07 0 3.66918e-07 0 0)
(1.45418e-05 7.60327e-08 0 7.94262e-07 0 0)
(2.50719e-05 8.55682e-07 0 1.11362e-06 0 0)
(3.75055e-05 2.22747e-06 0 2.23686e-06 0 0)
(4.94326e-05 6.17609e-06 0 3.70592e-06 0 0)
(4.81512e-05 1.00659e-05 0 4.20909e-06 0 0)
(4.63137e-05 1.16587e-05 0 5.07736e-06 0 0)
(4.3025e-05 1.31331e-05 0 5.64964e-06 0 0)
(3.53203e-05 1.33851e-05 0 6.9726e-06 0 0)
(2.52995e-05 1.15586e-05 0 7.86118e-06 0 0)
(1.66192e-05 8.73162e-06 0 7.04625e-06 0 0)
(1.03591e-05 5.58305e-06 0 4.27893e-06 0 0)
(6.16612e-06 3.52086e-06 0 3.20716e-06 0 0)
(3.75074e-06 2.08519e-06 0 2.04375e-06 0 0)
(2.79509e-06 1.43104e-06 0 1.32939e-06 0 0)
(2.53275e-06 1.09772e-06 0 8.0983e-07 0 0)
(2.62346e-06 9.58185e-07 0 5.10666e-07 0 0)
(2.82319e-06 8.86372e-07 0 3.49746e-07 0 0)
(3.02315e-06 8.46485e-07 0 2.72162e-07 0 0)
(3.25802e-06 8.17753e-07 0 2.25487e-07 0 0)
(3.48255e-06 8.40412e-07 0 2.16141e-07 0 0)
(3.67865e-06 8.71189e-07 0 2.16023e-07 0 0)
(3.89513e-06 9.35615e-07 0 2.32331e-07 0 0)
(4.12272e-06 1.03861e-06 0 2.67313e-07 0 0)
(4.41067e-06 1.19959e-06 0 3.31272e-07 0 0)
(4.72709e-06 1.44919e-06 0 4.50024e-07 0 0)
(5.11232e-06 1.835e-06 0 6.65397e-07 0 0)
(5.40746e-06 2.36181e-06 0 1.037e-06 0 0)
(5.45408e-06 3.00877e-06 0 1.6658e-06 0 0)
(4.99698e-06 3.54419e-06 0 2.52023e-06 0 0)
(4.01288e-06 3.79316e-06 0 3.59128e-06 0 0)
(2.89271e-06 3.69273e-06 0 4.71553e-06 0 0)
(2.89655e-06 3.69509e-06 0 4.71529e-06 0 0)
(4.01233e-06 3.7926e-06 0 3.5907e-06 0 0)
(4.99623e-06 3.5436e-06 0 2.51976e-06 0 0)
(5.45307e-06 3.00818e-06 0 1.66546e-06 0 0)
(5.40605e-06 2.36128e-06 0 1.0368e-06 0 0)
(5.11078e-06 1.83462e-06 0 6.65319e-07 0 0)
(4.72618e-06 1.44887e-06 0 4.49906e-07 0 0)
(4.40979e-06 1.19934e-06 0 3.31202e-07 0 0)
(4.1219e-06 1.03845e-06 0 2.67275e-07 0 0)
(3.89444e-06 9.35483e-07 0 2.32295e-07 0 0)
(3.67824e-06 8.71124e-07 0 2.15984e-07 0 0)
(3.48243e-06 8.40405e-07 0 2.16073e-07 0 0)
(3.25831e-06 8.18092e-07 0 2.25484e-07 0 0)
(3.02457e-06 8.47036e-07 0 2.71957e-07 0 0)
(2.82396e-06 8.87401e-07 0 3.49112e-07 0 0)
(2.61902e-06 9.58875e-07 0 5.08002e-07 0 0)
(2.50756e-06 1.09371e-06 0 8.06661e-07 0 0)
(2.66529e-06 1.40121e-06 0 1.34733e-06 0 0)
(3.36197e-06 1.96492e-06 0 2.10084e-06 0 0)
(5.24613e-06 3.20656e-06 0 3.24591e-06 0 0)
(8.69155e-06 5.02379e-06 0 4.25021e-06 0 0)
(1.35342e-05 7.64867e-06 0 6.48237e-06 0 0)
(2.03153e-05 1.00543e-05 0 7.27319e-06 0 0)
(2.78053e-05 1.17608e-05 0 6.92157e-06 0 0)
(3.468e-05 1.17077e-05 0 5.77303e-06 0 0)
(3.90669e-05 1.07842e-05 0 4.90341e-06 0 0)
(4.14648e-05 9.03607e-06 0 3.79868e-06 0 0)
(4.20937e-05 6.9999e-06 0 3.27384e-06 0 0)
(4.07637e-05 4.67127e-06 0 2.27318e-06 0 0)
(3.86827e-05 2.40345e-06 0 1.01161e-06 0 0)
(3.55383e-05 7.90631e-07 0 3.43408e-07 0 0)
(3.15674e-05 1.6483e-07 0 1.38386e-07 0 0)
(3.00653e-05 2.78516e-07 0 1.05239e-07 0 0)
(2.76529e-05 1.45486e-07 0 8.85362e-08 0 0)
(2.56225e-05 -3.23226e-09 0 5.90463e-08 0 0)
(2.37712e-05 -3.20571e-07 0 4.79125e-08 0 0)
(2.22464e-05 -5.5663e-07 0 5.2244e-08 0 0)
(2.07737e-05 -6.09308e-07 0 5.16936e-08 0 0)
(1.94934e-05 -5.33384e-07 0 3.89759e-08 0 0)
(1.83115e-05 -5.04867e-07 0 3.74298e-08 0 0)
(1.72658e-05 -4.45808e-07 0 3.2479e-08 0 0)
(1.63265e-05 -4.27994e-07 0 2.88858e-08 0 0)
(1.54439e-05 -3.94841e-07 0 2.52235e-08 0 0)
(1.463e-05 -3.85149e-07 0 2.34302e-08 0 0)
(1.38458e-05 -3.28876e-07 0 2.09091e-08 0 0)
(1.31172e-05 -2.65172e-07 0 1.94742e-08 0 0)
(1.24096e-05 -2.156e-07 0 1.80107e-08 0 0)
(1.17885e-05 -1.7429e-07 0 1.60113e-08 0 0)
(1.11896e-05 -1.55284e-07 0 1.52028e-08 0 0)
(1.05969e-05 -8.88347e-08 0 1.36031e-08 0 0)
(1.00846e-05 -2.56807e-08 0 1.49736e-08 0 0)
(9.58411e-06 -2.60853e-08 0 2.05213e-08 0 0)
(9.0816e-06 -3.95558e-08 0 2.05103e-08 0 0)
(8.56757e-06 3.42418e-08 0 2.00174e-08 0 0)
(8.21809e-06 1.21991e-07 0 2.44815e-08 0 0)
(7.82944e-06 1.48164e-07 0 2.37541e-08 0 0)
(7.50637e-06 1.04646e-07 0 2.41157e-08 0 0)
(7.11481e-06 4.65421e-08 0 2.31381e-08 0 0)
(6.74117e-06 9.38716e-08 0 2.55945e-08 0 0)
(6.36687e-06 1.35337e-07 0 2.92592e-08 0 0)
(6.07454e-06 1.61604e-07 0 3.32951e-08 0 0)
(5.7723e-06 1.52209e-07 0 3.69186e-08 0 0)
(5.49709e-06 2.02332e-07 0 4.02535e-08 0 0)
(5.24821e-06 2.52448e-07 0 5.07344e-08 0 0)
(5.01578e-06 2.48239e-07 0 5.93347e-08 0 0)
(4.7563e-06 2.58367e-07 0 6.12925e-08 0 0)
(4.64278e-06 2.81919e-07 0 5.98684e-08 0 0)
(4.42695e-06 2.90001e-07 0 6.10706e-08 0 0)
(4.18045e-06 2.97675e-07 0 7.62428e-08 0 0)
(4.07593e-06 2.90683e-07 0 6.80487e-08 0 0)
(3.90998e-06 3.06435e-07 0 7.78304e-08 0 0)
(3.73655e-06 3.02634e-07 0 8.53015e-08 0 0)
(3.61271e-06 3.06137e-07 0 8.55055e-08 0 0)
(3.48965e-06 3.07158e-07 0 8.83972e-08 0 0)
(3.35955e-06 3.06059e-07 0 9.29808e-08 0 0)
(3.24679e-06 3.0318e-07 0 9.45756e-08 0 0)
(3.14948e-06 3.02126e-07 0 9.90533e-08 0 0)
(3.04864e-06 3.03027e-07 0 1.01952e-07 0 0)
(2.96483e-06 2.99484e-07 0 1.0146e-07 0 0)
(2.87854e-06 2.94609e-07 0 1.07992e-07 0 0)
(2.78502e-06 2.91849e-07 0 1.09482e-07 0 0)
(2.70295e-06 2.84637e-07 0 1.09867e-07 0 0)
(2.63809e-06 2.75543e-07 0 1.0692e-07 0 0)
(2.59662e-06 2.69959e-07 0 1.01031e-07 0 0)
(2.56304e-06 2.67826e-07 0 1.10552e-07 0 0)
(2.52035e-06 2.80711e-07 0 1.21651e-07 0 0)
(2.4844e-06 2.94319e-07 0 1.37076e-07 0 0)
(2.44651e-06 3.109e-07 0 1.60679e-07 0 0)
(2.40583e-06 3.20662e-07 0 1.85232e-07 0 0)
(2.37174e-06 3.16753e-07 0 2.10266e-07 0 0)
(2.35682e-06 3.10007e-07 0 2.19594e-07 0 0)
(2.36468e-06 2.97069e-07 0 2.26707e-07 0 0)
(2.38847e-06 2.93174e-07 0 1.91751e-07 0 0)
(2.42604e-06 3.13076e-07 0 1.67671e-07 0 0)
(2.47779e-06 3.33733e-07 0 1.86512e-07 0 0)
(2.55042e-06 3.44901e-07 0 2.13292e-07 0 0)
(2.62539e-06 3.56771e-07 0 2.52522e-07 0 0)
(2.71339e-06 3.69805e-07 0 2.75807e-07 0 0)
(2.81681e-06 3.89992e-07 0 3.12823e-07 0 0)
(2.93644e-06 4.03663e-07 0 3.51191e-07 0 0)
(3.06668e-06 4.12039e-07 0 4.03885e-07 0 0)
(3.19363e-06 4.37146e-07 0 4.85217e-07 0 0)
(3.35344e-06 4.83519e-07 0 5.43788e-07 0 0)
(3.57958e-06 5.1833e-07 0 4.0792e-07 0 0)
(3.81981e-06 5.54086e-07 0 2.49153e-07 0 0)
(3.81711e-06 5.16057e-07 0 1.80041e-07 0 0)
(3.83582e-06 5.30502e-07 0 2.56742e-07 0 0)
(3.94557e-06 5.32707e-07 0 3.46865e-07 0 0)
(4.21109e-06 5.65079e-07 0 2.54283e-07 0 0)
(4.44765e-06 5.93558e-07 0 2.03051e-07 0 0)
(4.61716e-06 6.04782e-07 0 1.55366e-07 0 0)
(4.87026e-06 6.1645e-07 0 1.35923e-07 0 0)
(5.12376e-06 6.23017e-07 0 1.30012e-07 0 0)
(5.53737e-06 6.36712e-07 0 1.13476e-07 0 0)
(6.12509e-06 6.33136e-07 0 1.77259e-07 0 0)
(6.86818e-06 5.6449e-07 0 3.50018e-07 0 0)
(7.30914e-06 4.59588e-07 0 2.23906e-07 0 0)
(7.80311e-06 -1.02112e-07 0 4.626e-07 0 0)
(7.93419e-06 6.7192e-07 0 1.5812e-06 0 0)
(8.44818e-06 3.73528e-07 0 2.2382e-06 0 0)
(9.56672e-06 5.0588e-07 0 2.65437e-06 0 0)
(1.02253e-05 4.27957e-07 0 2.7077e-06 0 0)
(1.05768e-05 3.45686e-07 0 2.73584e-06 0 0)
(1.10813e-05 2.96039e-07 0 3.10059e-06 0 0)
(1.06667e-05 1.48484e-07 0 2.38467e-06 0 0)
(1.06257e-05 1.44427e-07 0 3.30298e-06 0 0)
(1.02358e-05 -2.40433e-09 0 2.64899e-06 0 0)
(9.55937e-06 3.81709e-08 0 2.49537e-06 0 0)
(9.31387e-06 -1.03287e-08 0 3.13571e-06 0 0)
(8.4558e-06 -1.28736e-07 0 2.37762e-06 0 0)
(7.77208e-06 -1.8107e-07 0 2.99462e-06 0 0)
(7.19364e-06 -2.99921e-07 0 1.7319e-06 0 0)
(6.79838e-06 -3.90807e-07 0 1.28758e-06 0 0)
(6.87029e-06 -5.15736e-07 0 4.0064e-07 0 0)
(6.92807e-06 -6.1096e-07 0 3.87543e-07 0 0)
(6.3003e-06 -5.27465e-07 0 3.2322e-07 0 0)
(5.34093e-06 -8.34235e-07 0 4.40969e-07 0 0)
(4.61816e-06 -7.90354e-07 0 2.74986e-07 0 0)
(5.05258e-06 -7.21893e-07 0 1.87113e-07 0 0)
(5.31665e-06 -5.49185e-07 0 1.15932e-07 0 0)
(5.53398e-06 -5.17571e-07 0 1.08637e-07 0 0)
(5.26123e-06 -5.24706e-07 0 9.21222e-08 0 0)
(5.13703e-06 -4.42949e-07 0 4.11132e-08 0 0)
(5.04727e-06 -5.21373e-07 0 7.8174e-08 0 0)
(4.89034e-06 -5.09887e-07 0 8.52182e-08 0 0)
(4.84701e-06 -5.22826e-07 0 1.05014e-07 0 0)
(4.76522e-06 -5.30149e-07 0 1.23961e-07 0 0)
(4.72515e-06 -5.6839e-07 0 1.49865e-07 0 0)
(4.62929e-06 -5.88689e-07 0 1.78345e-07 0 0)
(4.51182e-06 -6.16847e-07 0 1.30009e-07 0 0)
(4.47696e-06 -5.5796e-07 0 2.17511e-07 0 0)
(4.43021e-06 -6.06862e-07 0 2.4302e-07 0 0)
(4.34203e-06 -6.47241e-07 0 1.77527e-07 0 0)
(4.27437e-06 -6.73343e-07 0 1.98321e-07 0 0)
(4.21044e-06 -6.9325e-07 0 2.22509e-07 0 0)
(4.15062e-06 -7.16098e-07 0 2.36308e-07 0 0)
(4.08424e-06 -7.39253e-07 0 2.46977e-07 0 0)
(4.01405e-06 -7.66203e-07 0 2.42623e-07 0 0)
(3.93937e-06 -7.91589e-07 0 2.30018e-07 0 0)
(3.86818e-06 -8.10689e-07 0 2.31188e-07 0 0)
(3.84313e-06 -8.39497e-07 0 2.22211e-07 0 0)
(3.80078e-06 -8.73312e-07 0 2.21283e-07 0 0)
(3.76335e-06 -9.11643e-07 0 2.36263e-07 0 0)
(3.7203e-06 -9.49004e-07 0 2.54861e-07 0 0)
(3.67372e-06 -9.90551e-07 0 2.74708e-07 0 0)
(3.61986e-06 -1.03074e-06 0 2.96683e-07 0 0)
(3.56804e-06 -1.07032e-06 0 3.21715e-07 0 0)
(3.52799e-06 -1.11724e-06 0 3.54125e-07 0 0)
(3.49883e-06 -1.18361e-06 0 4.00732e-07 0 0)
(3.44778e-06 -1.2517e-06 0 4.54678e-07 0 0)
(3.36655e-06 -1.29677e-06 0 5.00111e-07 0 0)
(3.29828e-06 -1.35966e-06 0 5.60549e-07 0 0)
(3.23022e-06 -1.42809e-06 0 6.31404e-07 0 0)
(3.18897e-06 -1.53539e-06 0 7.39256e-07 0 0)
(3.14412e-06 -1.68264e-06 0 9.00522e-07 0 0)
(3.11613e-06 -1.86435e-06 0 1.11544e-06 0 0)
(2.89646e-06 -1.91599e-06 0 1.26743e-06 0 0)
(2.64087e-06 -2.11026e-06 0 1.68635e-06 0 0)
(2.32719e-06 -2.16105e-06 0 2.00707e-06 0 0)
(1.96e-06 -2.06037e-06 0 2.16598e-06 0 0)
(2.27359e-06 -2.53341e-06 0 2.82461e-06 0 0)
(8.49684e-07 -1.60324e-06 0 3.05099e-06 0 0)
(5.37497e-07 -1.31821e-06 0 3.23481e-06 0 0)
(1.59439e-07 -7.36297e-07 0 3.40397e-06 0 0)
(8.52137e-10 4.50865e-08 0 3.26685e-06 0 0)
(1.53052e-07 6.81968e-07 0 3.04474e-06 0 0)
(3.09979e-07 8.78531e-07 0 2.50291e-06 0 0)
(5.80933e-07 9.78634e-07 0 1.66469e-06 0 0)
(1.13992e-06 1.0399e-06 0 9.81174e-07 0 0)
(7.89193e-07 6.97419e-07 0 6.77642e-07 0 0)
(7.50544e-07 5.28835e-07 0 7.76055e-07 0 0)
(1.42623e-06 -2.26162e-07 0 2.55198e-06 0 0)
(1.34847e-06 -6.30357e-07 0 3.464e-06 0 0)
(1.21124e-06 -3.60012e-07 0 3.4625e-06 0 0)
(1.22982e-06 -1.04586e-06 0 6.28859e-06 0 0)
(1.59018e-06 -1.99139e-06 0 1.04918e-05 0 0)
(2.52738e-06 -3.58718e-06 0 1.76605e-05 0 0)
(3.67352e-06 -6.16686e-06 0 3.00681e-05 0 0)
(3.96536e-06 -7.36588e-06 0 4.01282e-05 0 0)
(3.92921e-06 -9.42923e-06 0 5.29328e-05 0 0)
(3.32768e-06 -8.49812e-06 0 5.37526e-05 0 0)
(2.93137e-06 -7.80069e-06 0 5.40929e-05 0 0)
(2.61327e-06 -6.66148e-06 0 5.20355e-05 0 0)
(2.30821e-06 -4.80768e-06 0 4.48913e-05 0 0)
(2.04823e-06 -3.09383e-06 0 3.56139e-05 0 0)
(1.76507e-06 -1.83303e-06 0 2.58947e-05 0 0)
(1.65906e-06 -1.35139e-06 0 1.91501e-05 0 0)
(1.49238e-06 -1.15344e-06 0 1.4638e-05 0 0)
(1.15244e-06 -9.41568e-07 0 1.11254e-05 0 0)
(8.00493e-07 -7.84474e-07 0 8.7351e-06 0 0)
(6.11971e-07 -6.50271e-07 0 7.04975e-06 0 0)
(5.60676e-07 -4.78131e-07 0 5.49913e-06 0 0)
(6.55953e-07 -3.74361e-07 0 4.61769e-06 0 0)
(1.06675e-06 -3.65334e-07 0 4.76091e-06 0 0)
(1.87557e-06 -4.44073e-07 0 5.82632e-06 0 0)
(2.64581e-06 -6.6034e-07 0 7.44836e-06 0 0)
(3.54588e-06 -8.77544e-07 0 9.30627e-06 0 0)
(4.35612e-06 -1.09953e-06 0 1.12274e-05 0 0)
(5.0759e-06 -1.13706e-06 0 1.23485e-05 0 0)
(5.29842e-06 -1.22499e-06 0 1.3245e-05 0 0)
(5.05527e-06 -1.22844e-06 0 1.45172e-05 0 0)
(4.95492e-06 -9.58149e-07 0 1.40677e-05 0 0)
(4.78151e-06 -7.87493e-07 0 1.31018e-05 0 0)
(4.69181e-06 -7.92363e-07 0 1.25479e-05 0 0)
(4.63713e-06 -7.53448e-07 0 1.19496e-05 0 0)
(4.69254e-06 -7.18267e-07 0 1.14272e-05 0 0)
(4.93012e-06 -7.55359e-07 0 1.11672e-05 0 0)
(5.46185e-06 -7.69802e-07 0 1.1032e-05 0 0)
(6.28857e-06 -8.004e-07 0 1.0989e-05 0 0)
(7.35667e-06 -8.34062e-07 0 1.09665e-05 0 0)
(8.22095e-06 -9.30699e-07 0 1.11053e-05 0 0)
(8.90168e-06 -1.02867e-06 0 1.23411e-05 0 0)
(9.57555e-06 -9.6111e-07 0 1.22713e-05 0 0)
(1.02862e-05 -1.03715e-06 0 1.26656e-05 0 0)
(1.14084e-05 -1.07582e-06 0 1.25664e-05 0 0)
(1.22948e-05 -1.10983e-06 0 1.23777e-05 0 0)
(1.33358e-05 -1.13716e-06 0 1.23268e-05 0 0)
(1.40541e-05 -1.16378e-06 0 1.25242e-05 0 0)
(1.45832e-05 -1.11844e-06 0 1.24131e-05 0 0)
(1.5193e-05 -1.11111e-06 0 1.27724e-05 0 0)
(1.60375e-05 -1.02963e-06 0 1.25383e-05 0 0)
(1.66718e-05 -1.01655e-06 0 1.29183e-05 0 0)
(1.78325e-05 -9.11564e-07 0 1.24959e-05 0 0)
(1.95233e-05 -9.20517e-07 0 1.29891e-05 0 0)
(2.21933e-05 -7.84116e-07 0 1.2387e-05 0 0)
(2.60473e-05 -7.95461e-07 0 1.26542e-05 0 0)
(2.96797e-05 -6.47983e-07 0 1.17972e-05 0 0)
(3.42459e-05 -8.69166e-07 0 1.30464e-05 0 0)
(4.02874e-05 -8.33934e-07 0 1.20909e-05 0 0)
(4.31089e-05 -7.57244e-07 0 1.20162e-05 0 0)
(3.94089e-05 -1.2963e-06 0 1.39228e-05 0 0)
(4.64247e-05 -1.80529e-06 0 1.19481e-05 0 0)
(6.26424e-05 -5.9239e-06 0 1.23689e-05 0 0)
(0.000923075 -0.000140846 0 3.20098e-05 0 0)
(0.00808021 -0.000497222 0 5.6862e-05 0 0)
(0.00731492 0.000345857 0 2.49853e-05 0 0)
(0.000558641 5.13325e-05 0 8.28894e-06 0 0)
(0.00028379 -2.67907e-05 0 3.129e-06 0 0)
(0.00060528 -3.91839e-05 0 3.59129e-06 0 0)
(0.000663553 -3.75216e-05 0 4.07883e-06 0 0)
(0.000641827 -3.75421e-05 0 4.60062e-06 0 0)
(0.000572396 -3.52328e-05 0 4.40098e-06 0 0)
(0.000514387 -3.35178e-05 0 4.13202e-06 0 0)
(0.000457465 -3.22135e-05 0 3.98995e-06 0 0)
(0.000410216 -3.16137e-05 0 4.05505e-06 0 0)
(0.000370913 -2.95657e-05 0 3.95453e-06 0 0)
(0.000339603 -2.95066e-05 0 4.42438e-06 0 0)
(0.000316282 -3.17569e-05 0 4.81087e-06 0 0)
(0.00029241 -3.21671e-05 0 4.87719e-06 0 0)
(0.000276784 -2.82932e-05 0 4.9086e-06 0 0)
(0.000267486 -2.61208e-05 0 4.37237e-06 0 0)
(0.000265739 -2.93726e-05 0 4.65541e-06 0 0)
(0.00025944 -3.21907e-05 0 5.51475e-06 0 0)
(0.000254387 -3.18533e-05 0 6.14191e-06 0 0)
(0.000255445 -3.11091e-05 0 5.75464e-06 0 0)
(0.000259593 -3.3341e-05 0 5.87248e-06 0 0)
(0.000265288 -3.65307e-05 0 6.49984e-06 0 0)
(0.000268679 -3.89625e-05 0 7.2329e-06 0 0)
(0.000275308 -4.07694e-05 0 7.72256e-06 0 0)
(0.000284017 -4.2905e-05 0 7.95041e-06 0 0)
(0.000294833 -4.575e-05 0 8.3678e-06 0 0)
(0.000307063 -4.87733e-05 0 8.92246e-06 0 0)
(0.00032019 -5.14966e-05 0 9.41193e-06 0 0)
(0.00033381 -5.44754e-05 0 9.93251e-06 0 0)
(0.000347899 -5.78955e-05 0 1.05633e-05 0 0)
(0.000362943 -6.05326e-05 0 1.09337e-05 0 0)
(0.000377124 -6.27634e-05 0 1.12056e-05 0 0)
(0.000388312 -6.47728e-05 0 1.14945e-05 0 0)
(0.000396217 -6.65593e-05 0 1.18026e-05 0 0)
(0.000401446 -6.79713e-05 0 1.20683e-05 0 0)