/*--------------------------------*- C++ -*----------------------------------*\
| =========                 |                                                 |
| \\      /  F ield         | OpenFOAM: The Open Source CFD Toolbox           |
|  \\    /   O peration     | Version:  v2006                                 |
|   \\  /    A nd           | Website:  www.openfoam.com                      |
|    \\/     M anipulation  |                                                 |
\*---------------------------------------------------------------------------*/
FoamFile
{
    version     2.0;
    format      ascii;
    class       volScalarField;
    location    "14.8";
    object      ducSensor;
}
// * * * * * * * * * * * * * * * * * * * * * * * * * * * * * * * * * * * * * //

dimensions      [0 0 0 0 0 0 0];


internalField   nonuniform List<scalar> 
341797
(
0.0944206
0.171295
0.579601
0.0795726
0.314681
0.165142
0.0826842
0.150853
0.124757
0.410584
0.243295
0.252648
0.191983
0.145541
0.190418
0
0.354102
0.237538
0.133965
0.106829
0.388318
0.43951
0.196479
0.422649
0.178148
0.244358
0.0470556
0.0774198
0.34376
0.384339
0.36056
0.180772
0.372295
0.324149
0.101342
0.285641
0.175591
0.100076
0.122048
0.22415
0.506889
0.354457
0.21734
0.525385
0.323899
0.252108
0.0426355
0.419254
0.328521
0.130275
0.271183
0.34694
0.239034
0.337229
0.350607
0.406403
0.262998
0.413391
0
0.182406
0.317914
0.309452
0.229096
0.234067
0.106845
0.186863
0.111086
0.157505
0.335201
0.0856201
0.174942
0
0.378265
0.396058
0.326767
0.211391
0.244412
0.379216
0.479645
0.211982
0.237038
0.278435
0.278923
0.24036
0.190276
0.208603
0.260331
0.2549
0
0.14906
0.147841
0.43352
0.202086
0.0712276
0.350094
0.251565
0.256986
0.405491
0.144058
0.209666
0.395218
0.434167
0.23574
0.0652602
0.122639
0.351709
0.482218
0.261211
0.137509
0.335828
0.0706191
0.340849
0.119118
0.224889
0.293739
0.188749
0.409796
0.326055
0.335601
0.206663
0.160387
0.198406
0.0999478
0.156829
0.325412
0.205322
0.206815
0.137384
0.228297
0.24061
0.250635
0.235485
0
0.189998
0.305075
0.299636
0.378982
0.305383
0.123192
0.101079
0.353763
0.0378175
0.292057
0.370749
0.394226
0.117767
0.299616
0.17807
0.223686
0
0.253347
0.432991
0.133577
0.152843
0.37894
0.142721
0.236512
0.109441
0.401399
0.292854
0.269022
0.198379
0.334735
0.17629
0.179202
0.267879
0.121149
0.261329
0.311503
0.187987
0.368368
0.391082
0.324522
0.195259
0.0162646
0.233363
0.339008
0.242023
0.268619
0.140794
0.257694
0.14271
0.209893
0.191951
0.58115
0.309652
0.461432
0.0603862
0.232146
0.430581
0.211869
0.62037
0.440926
0.214752
0.230338
0.332949
0.44843
0.480031
0.14134
0.192195
0.289949
0.13781
0.293969
0.483671
0
0.330537
0.28923
0.556018
0.326956
0.162235
0.301016
0.291287
0.287367
0
0.181799
0.315797
0.165847
0.297812
0.216631
0
0.415494
0.00710447
0.0268303
0.0986117
0.0906716
0.0894754
0.300657
0.698726
0.325996
0.352242
0.448032
0.494526
0.389499
0.0903831
0.336494
0.199336
0.395664
0.168883
0.199265
0.340376
0.355954
0.391423
0.327196
0.37797
0.47331
0.594391
0.274291
0.402008
0.312754
0.193304
0.204067
0.285901
0.143926
0.323538
0.255599
0.238133
0.318484
0.284243
0.177514
0.0686117
0.326865
0.0932762
0.48783
0.0977563
0.208658
0.298042
0.184937
0.140905
0.342308
0.313369
0.23874
0.335313
0.0252143
0.101833
0.0571715
0.196092
0.107461
0.21514
0.308042
0
0.314154
0.304159
0.372587
0.323853
0.448486
0.211931
0
0.332861
0.325179
0.0951623
0.221148
0.268313
0.106944
0.475773
0.495812
0.169801
0.256209
0.0749871
0
0
0.363886
0.302295
0.390475
0.289544
0.33614
0.274339
0.263896
0.251329
0.17384
0.243798
0
0.33451
0.335425
0.45805
0.495077
0.442922
0.435965
0.176253
0.16249
0.281861
0.206117
0.219884
0.116236
0.0269472
0.46515
0.0194772
0
0.327539
0.375622
0.311935
0.205111
0.338958
0.37415
0.113915
0.0493329
0.196079
0.237225
0.388903
0.247496
0.357486
0.246632
0.231618
0.27961
0.422175
0.369753
0.193746
0.137796
0.261842
0.337315
0.452495
0.0881389
0.112376
0.232801
0.177006
0.0856672
0
0.229108
0.403602
0.509482
0.392268
0.350519
0.429192
0.280602
0
0.492131
0.216172
0.245154
0.27578
0.387039
0
0.391061
0.208149
0.24806
0.350041
0.1819
0.267997
0.258383
0.26951
0.224857
0.262853
0.21654
0.154752
0.142404
0.557137
0.365737
0.189824
0.521148
0.271741
0.140282
0.437513
0.306008
0.0527694
0.647885
0.458267
0.392274
0.534003
0.278558
0.132519
0.229918
0.370669
0.0599828
0.315984
0.425079
0.183587
0.419704
0.569994
0.364999
0.243008
0.244028
0
0
0.375981
0.31115
0.225945
0.199395
0.045993
0.144662
0.00449805
0.308018
0.309804
0.283837
0.251031
0.285864
0.31627
0.423292
0.332334
0.293056
0.116365
0.100707
0.223
0.165804
0.179001
0.0531665
0.425392
0.427941
0.346579
0.502369
0.437526
0.301145
0.239021
0.316396
0.482052
0.154
0.371176
0.387628
0.240581
0.107884
0.174815
0.104414
0.0785066
0.0188517
0.0178044
0.273358
0.0388901
0.449445
0.22102
0.370762
0.293003
0.295386
0.16651
0.431304
0.20909
0.189735
0.658787
0.458447
0.290713
0.358471
0.441749
0.22777
0.34559
0.549107
0.224256
0.149549
0.256384
0.454658
0.281852
0.336995
0.295246
0.183181
0.212354
0.159822
0.415371
0.340541
0.242602
0.223204
0.315492
0.36939
0.23815
0.346173
0.100185
0.29018
0.25433
0.10557
0.614299
0.417576
0.311
0.440938
0.485373
0.467026
0.104599
0.341141
0.278
0.00457663
0.217287
0.157476
0.3428
0.168972
0.285995
0.146117
0.0792294
0.125148
0.122806
0.242075
0.347622
0.206261
0.0561652
0.231686
0.404356
0.140068
0.333551
0.40797
0.288124
0.387947
0.186108
0.398438
0.231639
0.491823
0.308564
0.245831
0.268889
0.389992
0.117296
0.159496
0.411682
0.234267
0.230911
0.371534
0.399338
0.176196
0.100303
0.246763
0.0881643
0.193546
0.267651
0.258102
0.279157
0.38222
0.360114
0.313351
0.402121
0.262105
0.423966
0.385609
0.54945
0.161267
0.281732
0.27742
0.344765
0.158684
0.185258
0.406822
0.175356
0.285084
0.323515
0.361324
0.519597
0.115364
0.141866
0.15036
0.114264
0.317233
0.25446
0.117554
0.342331
0.193465
0.306
0.0117983
0.455568
0.623006
0
0.0662132
0.205877
0.397149
0.0729215
0
0.0542917
0.077002
0.323614
0.443084
0.236176
0.180387
0.182035
0.279792
0.228568
0.193846
0.422332
0.0870887
0.318304
0.27045
0.0196537
0
0.238223
0.0885752
0.166965
0.227264
0.243199
0.286167
0.285584
0.168034
0.137377
0.314446
0.0284576
0.0578503
0.0758256
0.47266
0.134547
0.234661
0.276724
0.452734
0.0296858
0.141548
0
0.44862
0.293493
0.295489
0.138735
0.466642
0.332312
0.298173
0.205443
0.16745
0.272017
0.223084
0.430798
0.365086
0.536022
0.578788
0.234061
0.166018
0
0.144919
0.108745
0.154282
0.144567
0.285754
0.154472
0.239138
0.212778
0.313086
0.19557
0.431802
0.0179284
0.207621
0.282781
0.319813
0.221218
0.274372
0
0.263931
0.367476
0.465773
0.363497
0.280504
0.231167
0.279574
0
0.253174
0.408702
0.492027
0.282954
0.322022
0.493946
0.239394
0.565703
0.241303
0.344964
0.107658
0.205401
0.38453
0.55186
0.523578
0.121231
0.148954
0.356144
0.219157
0.159137
0.0776926
0
0.23361
0
0.334434
0.0533391
0.127077
0
0.172491
0.348993
0.269696
0.0443352
0.373256
0.227351
0.342732
0.347619
0.153457
0.268985
0.405361
0.226332
0.0926622
0.351823
0.302358
0.225742
0.0230322
0.247481
0.24726
0.0554079
0.234443
0.295052
0.533338
0.336086
0.411203
0.182122
0.414282
0.33984
0.144712
0.378019
0.169878
0.308452
0.233407
0.28254
0.1968
0.62198
0.338004
0.29406
0.414357
0.415782
0.288312
0.309731
0.380635
0.307748
0.423331
0.0315015
0.308394
0.254068
0.551782
0.229272
0.20887
0
0.488178
0.387322
0.441164
0.137962
0.29469
0.345047
0
0.237278
0.265411
0.198881
0.162597
0.199513
0.251033
0.386824
0
0.196746
0.261937
0.185319
0.343206
0.378565
0.268654
0.338285
0.280426
0.0577104
0.378716
0.268606
0.265774
0.461768
0.356338
0.531555
0.312852
0.324546
0.0527574
0.3439
0.415412
0.413952
0.450349
0.385814
0.283503
0.315395
0.0139403
0.358174
0.303783
0.254463
0.0720288
0.00257886
0.215542
0.229586
0.361206
0.137147
0.245042
0.20589
0.386733
0.200527
0.445005
0.175624
0.124709
0.405998
0.161629
0.27764
0.247387
0.198588
0.375028
0.188654
0.240554
0.220316
0.399225
0.107557
0.366941
0
0.390258
0.39088
0.311427
0.186624
0.209402
0.345781
0.135789
0.320251
0.0824579
0.0869324
0.44057
0
0.152754
0
0.221995
0.362777
0.201654
0.353831
0.126485
0.0656394
0.302709
0.305741
0.211519
0.0978651
0.125046
0.328685
0
0.340484
0.496961
0.284219
0.33262
0.207477
0.217279
0.18799
0.261315
0.244201
0.467872
0.342077
0.0730997
0
0.131158
0.151442
0.584104
0.270105
0.265264
0
0.412996
0.288309
0.620416
0.285657
0.225789
0.14076
0.186065
0.30099
0.459001
0.394305
0.397259
0.342747
0.53101
0.387269
0.24049
0
0.330326
0.279834
0.666085
0.0447993
0.101935
0.110555
0.25201
0.376285
0.270025
0.52828
0.35058
0.145925
0.171842
0.582236
0.47584
0.148531
0.0831588
0.0229362
0
0.308351
0.163886
0.0862481
0
0.241713
0
0.0503836
0.118544
0.00173991
0.157869
0.319058
0.190147
0.241783
0.309811
0.0640061
0.45316
0.008971
0.108003
0.426806
0.53491
0.224668
0.567824
0.357041
0.345785
0.432822
0.399576
0.152917
0.221053
0.46305
0.0199772
0.502867
0.275784
0.571351
0.390978
0.628925
0.206137
0.247024
0.474421
0.290977
0.246788
0.202603
0.453671
0.38858
0.159449
0.517136
0.1257
0.570275
0.149889
0.415895
0.261602
0.349884
0.245996
0.096484
0.391168
0.473208
0
0.200864
0.233311
0.101202
0.177867
0.423993
0.194307
0.384757
0.113251
0.182266
0.234929
0.0384712
0.146528
0.298222
0.269512
0.179793
0.328496
0.152716
0.550687
0
0.109135
0.429545
0.136835
0.404473
0.177561
0.387762
0.174657
0.228174
0.41788
0.125162
0.281344
0.206979
0.240801
0.31927
0.220776
0.066274
0.327281
0.33575
0.258915
0.225474
0.0992477
0.281147
0.310169
0.358211
0.42052
0.075131
0.149279
0.134521
0.221341
0.311486
0.197932
0.490759
0.0416396
0.187364
0.210601
0.220532
0.294887
0.271285
0.416049
0.368732
0.558079
0.426303
0.384299
0.525622
0.182451
0.406854
0.148119
0.391608
0.345553
0.383379
0.314521
0.583087
0.424192
0.750438
0.171957
0.344918
0.531026
0.118437
0.427697
0.299463
0.282369
0.290501
0.463785
0.344861
0.308991
0.205898
0.19429
0.232437
0.5073
0
0.384757
0.281044
0.201442
0.154323
0.163652
0.170338
0.288978
0.0631098
0.253087
0.262962
0.288577
0.319238
0
0.147
0.170637
0.0743635
0.368024
0.573568
0.306596
0.212117
0.113439
0.0354212
0.304995
0.161376
0.280892
0
0.131785
0.156181
0.152654
0.136001
0.227295
0.117703
0.100234
0.121442
0.20586
0.252203
0.187223
0.184521
0.278117
0.100238
0.0287058
0.0913443
0.141268
0.374951
0.184986
0.310744
0.155714
0.33598
0.176729
0.410579
0.307868
0.121265
0.16962
0.139658
0.103501
0
0.134361
0.229932
0.175183
0.245339
0.13519
0.525303
0.371489
0.518345
0.137035
0.352945
0.184586
0.367455
0.545894
0.414699
0.106732
0.35105
0.525775
0.406277
0.475635
0.462277
0.511895
0.584187
0.607926
0
0.572914
0.26632
0.282044
0.301176
0.318904
0
0.173501
0.338512
0.649281
0.239085
0.232019
0
0.042049
0.286883
0.362171
0.152983
0.264907
0.495307
0.385702
0.212799
0.322746
0.023422
0.304105
0.435451
0.294853
0.232962
0
0.34728
0.0498674
0.220279
0.0516674
0.192528
0.154053
0.113496
0.230138
0.140274
0.340401
0.194068
0.317556
0.294255
0.510455
0.401428
0.100256
0.151301
0.218492
0.179605
0.182436
0.282131
0.259679
0.116736
0.39634
0.00637504
0.100466
0.147052
0
0.339724
0.423368
0.141249
0.252078
0.138831
0.423137
0.324379
0.5975
0.0634601
0.278727
0.147623
0.450739
0.311625
0.0657134
0.0433473
0.243785
0.203313
0.0888356
0.202812
0.486288
0.193314
0.472329
0.142473
0.39207
0.618855
0
0.215159
0.416431
0.268666
0.262277
0.602079
0.258587
0.584507
0.00435816
0.569529
0.235091
0
0.335403
0.429126
0.493371
0.432449
0.454979
0.579554
0.017361
0.429084
0.357765
0.356863
0.260908
0.114774
0.424554
0.267112
0.206028
0.172576
0.312125
0.426221
0.253722
0.259997
0.234962
0.142018
0.186227
0.492432
0.189752
0.235512
0.0578839
0.328188
0.128706
0.174255
0.116548
0.134665
0.345235
0.0476478
0
0.458528
0.269147
0.369152
0.229025
0.473613
0.430061
0.0829114
0.217348
0.080413
0.0519733
0.0652088
0.226151
0.157908
0.156762
0.230951
0.481724
0.00933326
0.104009
0.148848
0
0.118502
0.0600089
0.210891
0.301073
0.337207
0.41844
0.264294
0.284473
0.248759
0.0199433
0.0921664
0.143189
0.00676893
0
0.437985
0
0.0626522
0.349161
0.361031
0.339858
0.132591
0.390597
0.0865321
0.170394
0.211271
0.39026
0.227151
0.254933
0.26396
0.383261
0.10018
0.411395
0.394324
0.319447
0.155949
0.295206
0.340184
0.343721
0
0.469842
0
0
0.452113
0.321282
0.219352
0.332122
0.322665
0.432685
0.400662
0.09387
0.466601
0.381817
0.343656
0.340122
0.403317
0.545888
0.198686
0.33767
0.0768203
0.375511
0.46849
0.482093
0.580747
0.157329
0.543711
0.402272
0.52823
0.0842228
0.0887704
0.323044
0.388065
0.373592
0.0488122
0.13945
0
0.317754
0.208557
0.103329
0.190455
0.504849
0.370071
0.39373
0.353962
0.291599
0.173834
0.377668
0.112527
0.260659
0.0378192
0.148596
0.107765
0.338703
0.0784868
0.298008
0.361158
0.091722
0.0784034
0.209606
0.418073
0.487482
0.22194
0.287191
0.17508
0.263763
0.502582
0.189399
0.20984
0
0.198662
0.422184
0.255311
0.519398
0.263166
0.379094
0.0249743
0.130323
0.40124
0.234898
0
0.1238
0
0.0641806
0
0.123018
0.0452788
0.103007
0
0.294441
0.141117
0.36948
0.402785
0.194026
0.18845
0.130375
0.461773
0.18593
0.320255
0.281368
0.212353
0.298214
0.265643
0.198209
0.413562
0.172113
0.145908
0.277735
0.573949
0.401168
0.386141
0.129124
0.160421
0.21548
0.542736
0.358268
0.245148
0.256966
0.409041
0.183222
0.0336624
0.408222
0.36322
0.158035
0.421933
0.217601
0.115939
0.522909
0.528964
0.501789
0.345722
0.22695
0.476885
0.371765
0.40743
0.545398
0.102151
0.228544
0.442898
0.447036
0.215815
0.237861
0.519673
0.348804
0.479779
0.518004
0.392996
0.580102
0.525333
0.132547
0.226053
0.284556
0
0
0.486936
0.365276
0.456607
0.0775536
0.251053
0.300323
0.173894
0.133822
0.278301
0.338414
0.317372
0.292277
0.213713
0.360854
0.246013
0.412399
0.251823
0.177848
0.324227
0.0806756
0.0152347
0.510484
0.484545
0
0.32287
0.446581
0.404475
0.708962
0.312528
0.122175
0.432485
0.37233
0.216526
0.117498
0.0923961
0.0382834
0.187707
0.192503
0.0838843
0.263721
0
0.094766
0.196036
0.288602
0.051827
0.163051
0.246264
0.211219
0.265102
0.0941678
0.368815
0
0
0.103032
0.274331
0.225706
0.345038
0
0.188282
0.148768
0.0525483
0
0
0.335742
0.119796
0.212106
0.188627
0.0198339
0.0275588
0.197098
0
0.023328
0.294647
0.371011
0.251549
0.363384
0.0137052
0.171823
0.314394
0.305005
0.194297
0.277978
0.0888719
0.356595
0.297354
0
0.703563
0.0528331
0.51657
0.155206
0.230627
0.385231
0.193495
0.522362
0.320479
0
0.23497
0.215407
0.222395
0.274005
0.308492
0.331152
0.204891
0.587804
0.139503
0.480214
0.381519
0.450367
0.492079
0.231724
0.377682
0.277194
0.489334
0.649693
0.571155
0.268907
0
0.267133
0.526539
0.340971
0.420579
0.465375
0.469814
0.565844
0.599106
0.382905
0.670197
0.533064
0.216104
0.104492
0.182965
0.278984
0.396964
0.141311
0.0933039
0.0548126
0.204527
0.245422
0.0627679
0.0930254
0.183706
0.171875
0.0298264
0.491523
0.259123
0.259516
0.154897
0.301627
0.24095
0.20713
0.384754
0.255873
0.216224
0.201497
0.301465
0.266587
0.382463
0.425671
0
0.500215
0.321588
0.212198
0.273963
0.24133
0
0.25563
0.278558
0.618648
0.22773
0.160443
0.164609
0.284616
0.137422
0
0.130114
0
0
0.266034
0.130329
0.386349
0.0535015
0.383977
0.27879
0.103573
0.443253
0.270249
0.289844
0.455224
0.406471
0.310489
0.514022
0.101454
0.49781
0.178144
0.396797
0.189578
0.336679
0.164861
0.233739
0.261203
0.363755
0.713143
0.128873
0.347468
0.327234
0.351206
0.406691
0.231971
0.24957
0.400531
0.251604
0.24
0.268714
0.165893
0.59548
0.257596
0.597647
0.305437
0.464552
0.692568
0.237841
0.466239
0.604264
0.416783
0.288225
0.00842656
0.344557
0.322606
0.341141
0.224843
0.298112
0.199662
0.0484567
0.275282
0.382092
0.141844
0.154172
0.475184
0.159931
0.243341
0.445795
0.354669
0.131582
0.472429
0.364766
0
0.400589
0.524157
0.354653
0.359859
0.43458
0.257417
0.401421
0.439038
0.25092
0.192308
0.159447
0.127868
0.413948
0.223811
0.487889
0.327672
0.198492
0.400602
0
0.213607
0
0.444949
0.0354859
0.367739
0.0855177
0.0136111
0.00614413
0.0850482
0.340784
0.299403
0.306301
0.0928352
0.152269
0.023164
0.203005
0.36495
0.00417752
0.637771
0.0989217
0.35469
0.253883
0.169376
0.269043
0.0345936
0.300886
0.413058
0.301042
0.431263
0.520136
0.290702
0.488317
0.248034
0.192578
0.193431
0.0875696
0.0883077
0.123148
0
0.204059
0.168023
0
0.192946
0.209937
0.00512158
0.0848606
0.100311
0
0.203135
0.0452315
0.0386872
0.335711
0.291576
0.437592
0.12601
0.382345
0.1749
0
0.32701
0.170634
0.263235
0.185145
0.327721
0.0757519
0.0927514
0.107996
0.567584
0.107602
0
0.203871
0.400071
0.280097
0
0.189064
0.0690475
0.194769
0
0.0708935
0.112849
0.154457
0
0.0998952
0.28662
0.457562
0.325135
0.334748
0.277336
0.1816
0.283683
0.165118
0.236123
0.26655
0.119835
0.312515
0.284304
0.323359
0.26701
0.230138
0.425181
0.341178
0.0958935
0.676139
0.371007
0.153012
0.0204729
0.448595
0.271168
0.351999
0.509216
0.219268
0.143781
0.269042
0.326576
0.285133
0.431817
0.19172
0.268756
0.233076
0.413517
0.124945
0.138977
0.417591
0.413871
0.190054
0.262859
0.143786
0.225541
0.180487
0.101146
0.283432
0.248546
0.320496
0.417432
0.518684
0.488132
0.387001
0.0783225
0.512834
0.487837
0.492418
0.799236
0.357624
0.190811
0.211639
0.331738
0.453511
0.789514
0.061333
0.507074
0.41001
0.488666
0.470727
0.286505
0.477406
0.0970444
0.398325
0.125899
0.114378
0.26618
0
0.0731052
0.317609
0.345313
0.203751
0.153594
0.310318
0.139906
0.230268
0.171028
0.28029
0.412355
0
0.196523
0.0506339
0.162845
0.271974
0.153654
0.357391
0.419805
0.414146
0.282197
0
0.223851
0.0711425
0.507915
0.290586
0.254386
0.0302712
0.0925568
0.154332
0.351703
0
0.352419
0.204989
0.346291
0.361687
0.251339
0.108111
0.347197
0.432958
0.163512
0.412811
0.219412
0.0465435
0.205734
0.129455
0.243054
0.192363
0.355714
0.0999403
0.296901
0.319883
0.502672
0.195834
0.0446639
0.744605
0.0542248
0.076187
0.361508
0.488575
0.101932
0.445658
0.364534
0.351433
0.390332
0.247525
0.362217
0.346377
0.290239
0.155551
0.290949
0.312382
0.0950915
0.25969
0.149367
0.210397
0.121022
0.0869664
0.495658
0.389565
0.260361
0.0813077
0.650139
0.500186
0.422176
0.452228
0.58293
0.256438
0.618883
0.340194
0.251645
0.113636
0.384448
0.292049
0.455434
0.521895
0.338223
0.579025
0.555579
0.427949
0.358129
0.361153
0.288033
0.199717
0.349281
0.272079
0.167192
0.50028
0.29274
0.550879
0.412235
0.561173
0.226561
0.164032
0.288009
0.36374
0.416709
0.334075
0.230672
0.225447
0.419741
0.346433
0.556599
0.606876
0.343575
0.526799
0.202714
0.0861415
0.452979
0.471712
0.386655
0.550662
0.42908
0
0.495127
0.312575
0.19069
0.192214
0.0409145
0.350719
0.347477
0.105279
0.00871721
0.0677752
0.419943
0.230075
0.137831
0.321717
0.0728499
0.0387503
0.228845
0.345233
0.074489
0.249521
0.368831
0.204366
0
0.303703
0.226094
0.172921
0.145885
0.0739759
0.27148
0.423499
0.143376
0.297733
0.161498
0.517071
0.337287
0.196787
0.530507
0.175796
0.616837
0.301346
0.195611
0.294546
0.00972714
0
0.0549348
0.219647
0.22729
0
0.0799231
0.168415
0
0
0.131453
0.197095
0.00119703
0.0446868
0.00542774
0.0886708
0.174033
0
0.485456
0.25687
0
0.263818
0.179101
0.0478416
0.215443
0.246798
0.492929
0.441103
0.179799
0
0.157784
0.209349
0.429442
0.402087
0.0461851
0.00179109
0.0143778
0.0875
0.281115
0.0876554
0.186724
0.330409
0.166194
0.0894645
0
0
0
0
0
0
0
0
0.0240545
0.256593
0.249545
0
0
0.166111
0.115264
0.223803
0.214964
0.344138
0.338639
0.110685
0.35897
0.162305
0.236028
0.456638
0.351704
0.309528
0.270208
0.295963
0.257737
0.159434
0.323809
0.131385
0.1768
0.33192
0.250913
0.341991
0.115167
0.331959
0.419375
0.300615
0.280434
0.398388
0.411209
0.329446
0
0.204095
0.362291
0.23376
0.326953
0.0603387
0.424138
0.220215
0.270755
0.249038
0.12268
0.350222
0
0.0531067
0.222131
0.139434
0.281883
0.229837
0.269097
0.0588328
0.275058
0.196865
0.332749
0
0.0226448
0.253941
0.218096
0.24325
0.303625
0.0679559
0.122299
0.450428
0.327752
0.397078
0
0.536513
0.561429
0.565279
0.453305
0.599941
0.413334
0.331372
0.561832
0.55834
0.547763
0.570702
0.607998
0.545154
0.180459
0.430611
0.00515543
0
0.446495
0.157065
0.0684324
0.271806
0.000588746
0.204351
0.111627
0.189294
0.278237
0.200833
0.00194377
0.492084
0.00943383
0.557764
0.0556116
0.265628
0.107024
0.0624569
0.162059
0.0789287
0.141687
0
0.283549
0.569366
0.17474
0.13577
0.369365
0.307308
0.331661
0.398059
0.30705
0.0206693
0.197993
0.218357
0.276731
0.0164654
0.22861
0.158625
0.324141
0.320806
0
0
0
0.229359
0.443613
0.519263
0
0.568814
0.448126
0.0678074
0.3987
0.0135293
0.469729
0.071659
0.211183
0.38666
0.239459
0.078116
0
0.177613
0.225994
0
0.276537
0.0888481
0.190844
0.134036
0.141297
0.354504
0.313554
0.552669
0.0490294
0.0581504
0.482541
0.350264
0.385563
0.480834
0.277747
0.441016
0.517756
0.458114
0.16041
0.178602
0.336897
0.21386
0.249669
0.369916
0.43895
0.0707627
0
0.432352
0.282592
0.488486
0.31877
0.507118
0.151202
0.445381
0.340259
0.424091
0.254728
0.628554
0.29171
0.45919
0.501513
0.16787
0.605344
0.425683
0.126166
0.228059
0.300343
0.563763
0.295995
0.276213
0.522481
0.350233
0.496006
0.291479
0.339208
0.342076
0.744037
0.423264
0.648292
0.379666
0.22143
0.266641
0.257511
0.542122
0.279235
0.314198
0.354511
0.412662
0.113411
0.288802
0.490255
0.437032
0.217983
0.351929
0.254965
0.208299
0.487596
0.281946
0.50756
0.31053
0.379528
0.376555
0.417374
0.348814
0.307745
0.257774
0.332235
0.242552
0.331186
0.161302
0.0600884
0.282385
0.354522
0.289577
0.218673
0
0.49944
0.615171
0.443521
0.356324
0.130464
0.447795
0.443286
0.275055
0.295544
0.34776
0.35902
0.1725
0.405178
0.324852
0
0
0.200675
0.31421
0.252361
0.226993
0.424644
0.487859
0.0040356
0.178907
0.456347
0.395592
0.0813709
0
0
0.225066
0.0834726
0.397622
0.416976
0.359852
0.337794
0.385982
0.581756
0.201311
0.161201
0.0431253
0.359792
0.0246922
0.454181
0.284949
0.204596
0.128562
0.256283
0.103126
0
0.121342
0
0
0
0.0738203
0.188358
0
0.283767
0
0.0130223
0.086415
0
0.116975
0.0398733
0.180888
0.0634332
0.444363
0.440203
0.305654
0.175252
0.0384512
0.525002
0.315789
0.0656599
0
0.156216
0
0.312175
0.418508
0.315022
0.130037
0.000989523
0.287443
0.168534
0.167497
0.100534
0
0.101878
0
0
0.269156
0.100212
0
0.277948
0.0183718
0.366827
0.148979
0.196693
0.237599
0
0.0703846
0
0.0169823
0.434903
0
0
0.222494
0
0
0.220974
0
0
0
0.100081
0
0.105237
0.0449747
0.233556
0.283735
0
0.133417
0.246621
0.0987051
0.134549
0.127522
0.409678
0.175498
0.246717
0.291067
0.273576
0.251574
0.216219
0.199248
0.156487
0.209519
0.398709
0.372282
0.361531
0.554847
0.297251
0.114948
0.382297
0.356584
0.158636
0.288347
0.321552
0
0
0.521868
0.0827444
0.287644
0.356058
0.345408
0.552291
0.277194
0.2223
0.0135006
0.112102
0.255965
0.431455
0.485377
0.405777
0.00198976
0.225234
0.0581885
0.168747
0.354203
0.149264
0.405078
0.0222528
0.432563
0.247316
0.233245
0.233475
0.229877
0.359237
0.201308
0.268117
0.242897
0.135134
0.26888
0.206782
0.0521727
0.154105
0.247465
0.00815951
0.0153346
0.274901
0.415248
0.157311
0
0.50671
0.255481
0.282721
0.238389
0.0785916
0.0554952
0.53166
0.422572
0.372376
0.683148
0
0.623194
0.580847
0.742902
0.696315
0.224157
0.0346208
0.395525
0
0.500316
0.581523
0.594971
0.750388
0.324746
0.0175758
0.599807
0.642556
0.149978
0
0
0.17752
0.102739
0.303696
0.0717621
0.345628
0.253193
0.0738961
0.288684
0.188392
0.211587
0.104556
0.0393956
0.232041
0.0964142
0.00245882
0.429315
0.0818185
0.224478
0.279653
0.353415
0.353194
0.463264
0.131044
0.047097
0.120627
0
0.112429
0.299627
0.358069
0.160691
0.0345678
0
0.224806
0
0.355116
0.474753
0.404816
0.395868
0.0988846
0.50601
0.157209
0
0.0709025
0.481618
0.116259
0.0628663
0
0.0296959
0
0.0552423
0.217569
0.136371
0.171665
0.295115
0.365052
0.295757
0.493243
0.283598
0.192971
0.453239
0.473902
0.205445
0.207362
0.334972
0.222822
0.153395
0.373461
0.268259
0.324602
0.335689
0.13746
0.351507
0.387346
0.388723
0.208307
0.484515
0.150684
0.519284
0.219777
0.520475
0.116943
0.345907
0
0
0.314211
0.167409
0.190335
0.285018
0.177706
0.0247379
0.550622
0.175081
0.534716
0.3412
0.109637
0.564482
0.699478
0.701762
0.479795
0.357059
0.719091
0.173721
0.682978
0.600846
0.343593
0.558306
0.272389
0.410233
0.385182
0.0782154
0.377282
0.528069
0.513801
0.302173
0.283834
0.199409
0.243386
0.666286
0.462997
0.0350426
0
0.497838
0.259343
0.304923
0.172045
0.318082
0.340115
0.312794
0.450052
0
0.259454
0.391151
0.340476
0.0716288
0.418607
0.368941
0.247101
0.431717
0.254941
0.273063
0.530156
0.372372
0.743679
0.415936
0
0.261199
0.496325
0.0699875
0.33744
0.377513
0.435039
0.327697
0.125801
0
0.382674
0.173305
0.26488
0
0.214705
0
0.407471
0.478107
0.00443192
0.345063
0.315464
0.099319
0.32292
0.289922
0.299326
0.231339
0.400583
0.265271
0.190305
0.229269
0.120643
0.081172
0.184662
0.331786
0.317109
0.146422
0.337542
0.260901
0.460724
0.56646
0.506957
0.474986
0.491793
0.227829
0
0.253843
0
0.268604
0.380758
0.293361
0.285343
0.306487
0.25518
0.078015
0.366913
0.138275
0.197648
0.163238
0.417291
0.00396385
0.114813
0.0678059
0
0
0
0.0852205
0.0593917
0
0
0.0761577
0.239156
0.340316
0.0511942
0.0886776
0
0.0789559
0.0847849
0.0180067
0.30222
0
0
0.541954
0.526135
0.393899
0.32853
0.111903
0.181573
0.221839
0
0.163115
0.225229
0.150379
0.259955
0
0.162544
0
0.155634
0.339942
0.25644
0.0270403
0
0.0124346
0.101799
0.227397
0.0489238
0
0
0
0
0.300783
0.21709
0
0.0797251
0
0
0.0600811
0
0
0.195796
0.0915215
0.241929
0.0759069
0
0
0
0.257267
0
0.000295196
0
0.19678
0
0.0828437
0
0.0430163
0.190455
0.294328
0.0262288
0
0.256066
0.340105
0.0807822
0.120758
0
0.0512354
0
0.306591
0.110425
0.0800469
0.288068
0.0530858
0
0.568788
0.106533
0
0.0850559
0.35235
0.00467157
0.145996
0.163673
0.292964
0.0427055
0.384995
0.174524
0.308929
0.269229
0.340555
0.266824
0.252656
0.156653
0.172821
0.19357
0.224064
0.146832
0.343716
0.116789
0.210668
0.110292
0.510349
0.396321
0.0103644
0.358183
0.509074
0.423796
0.256587
0.58774
0.353804
0.299746
0.213931
0.178228
0.481852
0.157669
0.450213
0.442936
0.351092
0.450147
0.37734
0.24997
0.404271
0.12386
0.364436
0.189474
0.100894
0.148611
0.488636
0.141581
0.263269
0.117144
0.126194
0.247593
0.31332
0.0703842
0.284823
0.294426
0.315692
0.215898
0.190091
0
0.162543
0.248786
0.262842
0.15094
0.115339
0.124162
0.103564
0.131993
0.357905
0.197631
0
0.185476
0.438071
0.218098
0.194093
0.105961
0.243524
0.0606169
0.517326
0.27403
0.0499605
0.182537
0.387312
0.148216
0
0.0955256
0.63363
0.701601
0.561506
0.557073
0.208355
0.233832
0.117355
0.477031
0.404223
0.543847
0.262021
0.448562
0.281765
0.658586
0.583077
0.333459
0.54258
0.582644
0.714775
0.200123
0.776923
0.725991
0.190042
0
0.300398
0.355606
0
0.225468
0.141582
0.243596
0.39394
0.149757
0.216304
0.184468
0.115783
0.264642
0.314052
0.00350332
0.284777
0.109121
0.0486494
0.166195
0.0133302
0.29572
0.259788
0.0957826
0.158701
0.0288354
0.27039
0.308053
0
0.450068
0.100361
0.321057
0
0.144975
0.262215
0
0
0
0
0.415929
0.370695
0.159726
0.138541
0.179458
0.0998581
0
0.309564
0.519362
0
0.100172
0.340263
0.104598
0.638171
0.189632
0.253836
0.0332892
0.169849
0.433878
0.499924
0.372254
0.296129
0.161666
0.381442
0.166851
0.0467796
0.431902
0.523187
0.44753
0.400678
0.263971
0.0171199
0.27392
0.226228
0.0862008
0.318092
0.37771
0.19464
0.481086
0.172396
0.25424
0.279537
0.261569
0.391957
0.326082
0.332878
0.396747
0.501245
0.296762
0.696187
0.490734
0.687322
0.507917
0.609391
0.691004
0.515015
0.63857
0.672108
0.612667
0.546366
0.596007
0.0678594
0.538303
0.394811
0.108682
0.594006
0.378655
0.15738
0.616128
0.531063
0.342283
0.515836
0.537533
0.636538
0.542312
0.19744
0.391277
0.539549
0.497978
0.273447
0.0361607
0.365545
0.412172
0.384908
0.45699
0.443408
0.397233
0.460988
0.361024
0.14966
0.217833
0.198419
0.0670513
0.19491
0.0214254
0.277945
0.225287
0.321588
0.215069
0.383415
0.23916
0.470774
0.395006
0.110296
0.512317
0.504639
0.154336
0.259599
0.363681
0.326149
0.4786
0.190271
0.336341
0.240659
0
0.292931
0.0163046
0.133665
0.59407
0.452773
0.133904
0.0445009
0.45699
0.164029
0.0633631
0.411551
0.1681
0.351144
0.406434
0.406345
0.0995405
0.309891
0.250606
0
0.137368
0.212148
0.262161
0.426795
0.183697
0.0558076
0.129853
0.0949693
0.681307
0.399499
0
0.455474
0.484753
0.301274
0.378582
0.331003
0.20632
0.34948
0.0529193
0.326994
0.0187157
0.101316
0.389885
0.508684
0.288528
0.363542
0.446216
0.317842
0.137413
0.475324
0.540045
0.582655
0.503399
0.449079
0.161879
0.0526466
0
0
0
0
0.033686
0.247185
0
0
0.0292756
0
0
0.240255
0
0.0323182
0
0
0
0.0515066
0.0811067
0.0995049
0.344875
0.230648
0.340882
0.0681391
0.119038
0
0.418163
0.557816
0.222073
0.456044
0
0.208979
0.0193289
0.200644
0.0124619
0.272402
0.0672861
0.312262
0
0.286589
0.522359
0.355036
0.0942147
0.152694
0.245894
0
0
0.0375579
0.0787049
0.226178
0.213117
0
0
0
0.369587
0.152109
0
0
0.228084
0
0.164543
0.149081
0
0
0.121717
0.181314
0.212074
0.10004
0.191998
0.0381071
0.356974
0.193957
0.0246864
0
0.0238534
0.0960414
0
0
0.3786
0
0
0
0
0.131013
0
0.0889349
0
0
0
0
0
0
0.0834403
0
0.0119445
0.0527947
0
0.0186003
0
0.312245
0
0.0322543
0.299338
0
0.0600576
0
0.273282
0
0
0
0.20024
0.0419118
0.0985149
0.0596218
0
0.20754
0
0.0608148
0.496899
0.120139
0.264135
0
0.0988014
0.205593
0
0
0.516132
0
0.250918
0.386663
0.143027
0.418567
0.212219
0.123592
0.253724
0.374178
0.389021
0.18738
0.538734
0.0263903
0.372808
0.345057
0.0668743
0.180351
0.290244
0.164533
0.0823799
0.205491
0.21411
0.521132
0.270073
0.306762
0.555512
0.168774
0.549623
0.25205
0.349963
0.153741
0.333094
0.249627
0.304173
0.58483
0.426286
0.308577
0.370501
0.0711798
0.084487
0.303673
0.179102
0.216813
0
0.350805
0.31538
0.487307
0.313733
0.4236
0.121865
0.396416
0
0.337974
0
0.421292
0.338644
0.42522
0.246981
0.331802
0.109824
0.303962
0.237542
0.124962
0.324083
0.254923
0.370205
0.385453
0.521808
0.333342
0.212839
0.275402
0.282828
0.293607
0.255746
0.177547
0.196105
0.0466558
0.22575
0.292801
0.184207
0.26533
0.469713
0.159343
0.0298991
0.2709
0.237393
0.169238
0.0825613
0.0923157
0.205461
0.32604
0
0.144048
0.0437789
0.236406
0.189441
0.0710155
0.589212
0.252739
0.118208
0.20485
0.391776
0.313425
0.173479
0.275207
0.0578274
0.0904557
0.506231
0.401328
0.803696
0.364182
0.178793
0.671774
0.70639
0.440671
0.20097
0.151275
0.458534
0.380417
0.0669447
0.77608
0.56852
0
0.722671
0.554865
0.625587
0.622382
0.737638
0.218873
0.24425
0.369069