/*--------------------------------*- C++ -*----------------------------------*\
| =========                 |                                                 |
| \\      /  F ield         | OpenFOAM: The Open Source CFD Toolbox           |
|  \\    /   O peration     | Version:  v2006                                 |
|   \\  /    A nd           | Website:  www.openfoam.com                      |
|    \\/     M anipulation  |                                                 |
\*---------------------------------------------------------------------------*/
FoamFile
{
    version     2.0;
    format      ascii;
    class       volScalarField;
    location    "14.8";
    object      p;
}
// * * * * * * * * * * * * * * * * * * * * * * * * * * * * * * * * * * * * * //

dimensions      [1 -1 -2 0 0 0 0];


internalField   nonuniform List<scalar> 
341797
(
0.947543
0.947591
0.949688
0.945209
0.948108
0.948566
0.950158
0.952426
0.945136
0.944927
0.948242
0.949454
0.950328
0.950269
0.95194
0.953084
0.947376
0.944982
0.943495
0.944453
0.947518
0.950445
0.949803
0.954263
0.949982
0.951776
0.951742
0.952849
0.953892
0.947851
0.943184
0.944033
0.942966
0.944504
0.949297
0.946808
0.953656
0.95012
0.95433
0.949147
0.953727
0.951926
0.953421
0.953473
0.957859
0.945833
0.94653
0.942532
0.940583
0.943808
0.940621
0.942461
0.943392
0.949993
0.944152
0.947479
0.954236
0.951342
0.952442
0.957166
0.955627
0.949986
0.945587
0.95289
0.951886
0.952638
0.953697
0.95402
0.957448
0.958222
0.958883
0.945457
0.946204
0.948901
0.942858
0.939569
0.938815
0.942926
0.939422
0.941549
0.95313
0.94936
0.94269
0.943138
0.944828
0.956777
0.950695
0.954388
0.952695
0.957828
0.95761
0.948147
0.94939
0.944852
0.95477
0.953399
0.954599
0.956236
0.956599
0.95812
0.959385
0.960531
0.94525
0.945161
0.947902
0.94928
0.939574
0.938149
0.939076
0.937438
0.938573
0.943005
0.937978
0.938859
0.954194
0.951811
0.946745
0.941201
0.941259
0.943866
0.957394
0.952815
0.951066
0.956104
0.953832
0.958999
0.958285
0.959402
0.949948
0.945284
0.95185
0.945977
0.943734
0.956006
0.953916
0.955374
0.95656
0.958704
0.956826
0.957964
0.961635
0.959539
0.963106
0.963812
0.944981
0.944905
0.948328
0.948915
0.939432
0.93783
0.93709
0.939615
0.935656
0.937733
0.943406
0.938503
0.954208
0.951579
0.944371
0.944175
0.941212
0.938853
0.959983
0.952522
0.953133
0.952889
0.958153
0.958124
0.956908
0.954557
0.961573
0.959805
0.960524
0.949589
0.944849
0.952109
0.947358
0.944211
0.954973
0.953041
0.955097
0.956073
0.958129
0.959353
0.958723
0.963465
0.962762
0.958326
0.964368
0.964278
0.96574
0.941036
0.944598
0.946395
0.948129
0.951347
0.937724
0.938062
0.934798
0.93806
0.935312
0.935734
0.938276
0.939424
0.938296
0.95306
0.957845
0.950003
0.952098
0.940244
0.944751
0.940824
0.939788
0.938466
0.951995
0.952733
0.956107
0.951933
0.959529
0.956452
0.958147
0.952452
0.961557
0.962003
0.960905
0.959321
0.963249
0.947953
0.946964
0.945332
0.944458
0.940371
0.953
0.955682
0.955351
0.956869
0.958533
0.960277
0.95945
0.961906
0.962706
0.965585
0.965301
0.961041
0.966618
0.966543
0.965426
0.967568
0.94177
0.939291
0.946106
0.947021
0.949529
0.951105
0.936102
0.936808
0.934557
0.934169
0.936541
0.937635
0.933261
0.934678
0.935229
0.938333
0.937559
0.938588
0.951246
0.956005
0.958482
0.947661
0.946847
0.955782
0.938547
0.939872
0.943769
0.939719
0.938434
0.954029
0.955209
0.95103
0.957638
0.951093
0.960879
0.957853
0.95775
0.952801
0.963882
0.962955
0.962275
0.960964
0.965435
0.96307
0.946297
0.943347
0.942947
0.940152
0.940654
0.938966
0.952432
0.95528
0.955618
0.9573
0.958698
0.960737
0.961635
0.962281
0.964989
0.969318
0.964648
0.964597
0.960153
0.970101
0.968179
0.972915
0.969254
0.96831
0.970884
0.940949
0.938891
0.94557
0.946854
0.949944
0.950532
0.93546
0.935175
0.933846
0.933249
0.933002
0.935277
0.937073
0.931471
0.933614
0.935292
0.933675
0.936839
0.936138
0.951249
0.955738
0.958431
0.960377
0.94722
0.945506
0.947815
0.954251
0.938571
0.942283
0.938394
0.937108
0.954176
0.954505
0.951032
0.958438
0.957742
0.958818
0.951566
0.965116
0.962533
0.963598
0.96675
0.962369
0.963656
0.946783
0.940953
0.940098
0.948961
0.943468
0.940858
0.936845
0.942067
0.937811
0.953841
0.9554
0.958297
0.957194
0.954853
0.957182
0.958417
0.960752
0.961701
0.964735
0.962812
0.965452
0.969691
0.965811
0.966835
0.971079
0.972692
0.974587
0.975614
0.974204
0.972716
0.972938
0.942852
0.940143
0.937245
0.94614
0.949068
0.949447
0.951886
0.935554
0.934446
0.93405
0.933489
0.929875
0.931175
0.935526
0.930489
0.931634
0.933244
0.933983
0.934685
0.936628
0.938233
0.949539
0.955837
0.957185
0.962503
0.945424
0.947774
0.947758
0.956923
0.934403
0.940205
0.934816
0.933688
0.9539
0.955001
0.949903
0.958532
0.959646
0.960227
0.951113
0.962578
0.967928
0.96486
0.967849
0.974429
0.964056
0.964444
0.964506
0.949045
0.94273
0.938468
0.942568
0.948624
0.948015
0.940864
0.943604
0.938875
0.93241
0.935876
0.937016
0.951467
0.95621
0.961966
0.952108
0.957351
0.958988
0.96116
0.962474
0.964478
0.966889
0.965998
0.968179
0.973672
0.969583
0.96822
0.974314
0.974936
0.977228
0.975015
0.977552
0.975431
0.97471
0.973362
0.943293
0.938171
0.936181
0.947792
0.948712
0.950506
0.952227
0.93383
0.934538
0.932271
0.933918
0.929817
0.92939
0.930951
0.929867
0.934373
0.92864
0.929313
0.93035
0.935647
0.931251
0.936713
0.952553
0.957682
0.95914
0.963651
0.945157
0.946164
0.945262
0.952399
0.959393
0.933359
0.938193
0.931951
0.935255
0.931575
0.931285
0.955757
0.95257
0.95687
0.961418
0.95917
0.962211
0.949626
0.965997
0.972729
0.967633
0.972872
0.974349
0.969418
0.9635
0.969008
0.967795
0.947911
0.939051
0.945493
0.938412
0.936367
0.945644
0.94688
0.94112
0.945519
0.942142
0.936712
0.934757
0.938255
0.934286
0.949258
0.952749
0.957005
0.959144
0.952325
0.957723
0.959307
0.961543
0.962946
0.964554
0.967323
0.96965
0.969022
0.97187
0.974711
0.975863
0.978476
0.978037
0.972582
0.977109
0.980051
0.978563
0.976789
0.976362
0.97402
0.975021
0.942675
0.937107
0.936607
0.947625
0.948532
0.950822
0.951588
0.931582
0.932725
0.933974
0.930933
0.92856
0.929154
0.928555
0.930661
0.929528
0.927623
0.92898
0.928893
0.929822
0.9334
0.952952
0.958975
0.959283
0.967553
0.945196
0.947067
0.949087
0.954094
0.962652
0.931243
0.93032
0.931813
0.935512
0.929888
0.931134
0.930982
0.955849
0.951753
0.957954
0.961264
0.959198
0.964442
0.94983
0.973261
0.973317
0.969944
0.971808
0.977942
0.97647
0.976509
0.969347
0.964732
0.967375
0.973071
0.966236
0.970735
0.937792
0.938446
0.942993
0.946215
0.936513
0.935229
0.936767
0.947877
0.944056
0.949576
0.939155
0.942382
0.944164
0.940051
0.93564
0.936858
0.936244
0.933028
0.93674
0.930941
0.934115
0.950012
0.951815
0.953822
0.956947
0.965161
0.949573
0.956799
0.959004
0.96111
0.963881
0.968711
0.968484
0.972281
0.972231
0.977941
0.978755
0.981126
0.981193
0.97322
0.976691
0.981586
0.983469
0.979524
0.982321
0.98188
0.976709
0.974254
0.945252
0.935187
0.9479
0.949103
0.950398
0.954279
0.930074
0.932207
0.932051
0.929282
0.929071
0.929243
0.927049
0.929863
0.929768
0.928694
0.929851
0.928114
0.92777
0.929917
0.929755
0.929684
0.933095
0.951969
0.958564
0.962051
0.970732
0.968081
0.942143
0.946611
0.948687
0.943173
0.954014
0.955039
0.962189
0.930921
0.931276
0.932851
0.927889
0.92889
0.927398
0.930253
0.955163
0.955129
0.956132
0.963641
0.961706
0.971091
0.962629
0.947987
0.974882
0.973623
0.973828
0.971633
0.979458
0.975498
0.981454
0.976041
0.967336
0.971223
0.966997
0.965366
0.970451
0.969781
0.93767
0.937378
0.936212
0.942532
0.944821
0.935437
0.931342
0.935801
0.938292
0.94661
0.943336
0.938301
0.946366
0.939863
0.944033
0.936354
0.934136
0.938809
0.93548
0.930107
0.93672
0.929674
0.925645
0.929125
0.93788
0.948233
0.950286
0.952279
0.958703
0.962929
0.95938
0.951192
0.952285
0.959677
0.960927
0.963858
0.967071
0.972005
0.97202
0.972865
0.974058
0.972239
0.982109
0.976719
0.982351
0.985068
0.983493
0.982724
0.976844
0.977271
0.979168
0.987096
0.986553
0.984746
0.984474
0.984447
0.98368
0.983307
0.975445
0.945896
0.934625
0.949499
0.951458
0.953873
0.927835
0.928498
0.929967
0.931366
0.928486
0.926612
0.928043
0.926273
0.929813
0.926729
0.929857
0.926294
0.92758
0.927842
0.928495
0.929496
0.954263
0.956721
0.960111
0.961783
0.971493
0.941967
0.945306
0.94601
0.944192
0.946284
0.954139
0.958761
0.954847
0.963196
0.970586
0.928178
0.927712
0.932931
0.927087
0.925877
0.928484
0.924716
0.92706
0.926831
0.957756
0.953442
0.9592
0.963961
0.960615
0.968235
0.97144
0.959791
0.959644
0.948011
0.974809
0.986399
0.974757
0.975764
0.973572
0.973223
0.974022
0.987989
0.979576
0.977807
0.98041
0.986394
0.973439
0.980965
0.964868
0.969636
0.972587
0.966022
0.968757
0.973909
0.969853
0.972611
0.935284
0.938495
0.940185
0.9347
0.934097
0.942903
0.946336
0.93144
0.928976
0.928014
0.933025
0.936083
0.941352
0.946049
0.937867
0.94337
0.947102
0.939306
0.940995
0.944162
0.936344
0.932476
0.936736
0.934919
0.931376
0.929025
0.937553
0.940295
0.924595
0.928795
0.923632
0.928739
0.927997
0.942283
0.9329
0.950963
0.950163
0.954889
0.958035
0.972453
0.960475
0.958243
0.962141
0.948215
0.951778
0.949509
0.959784
0.961581
0.963666
0.975743
0.974621
0.975317
0.974732
0.982895
0.980046
0.984432
0.991091
0.988134
0.989747
0.975099
0.978325
0.990113
0.992018
0.98661
0.988871
0.98706
0.986065
0.985019
0.978656
0.944987
0.932784
0.949003
0.952305
0.953657
0.927147
0.928093
0.928859
0.930264
0.927762
0.92526
0.926169
0.924591
0.928066
0.924775
0.928369
0.923669
0.926419
0.926693
0.925881
0.929125
0.92769
0.953754
0.956007
0.958757
0.965112
0.9693
0.941918
0.947744
0.945225
0.942373
0.954961
0.947441
0.958055
0.960576
0.963127
0.958265
0.961256
0.967315
0.973983
0.973195
0.974092
0.9278
0.927236
0.928134
0.926123
0.931964
0.924897
0.92602
0.923554
0.923382
0.924912
0.92576
0.924659
0.925662
0.923608
0.922822
0.924457
0.95774
0.953037
0.958639
0.969695
0.960645
0.960073
0.971241
0.969985
0.971084
0.956491
0.961287
0.957829
0.961331
0.946209
0.948311
0.98711
0.989692
0.986629
0.975919
0.977965
0.978614
0.978874
0.975109
0.992241
0.979816
0.988353
0.976253
0.978622
0.985598
0.975954
0.985782
0.967298
0.971686
0.976146
0.969622
0.972369
0.971935
0.935758
0.934193
0.940164
0.940207
0.934625
0.935041
0.945681
0.941279
0.942485
0.945092
0.929717
0.926944
0.925536
0.928672
0.93548
0.931517
0.940439
0.932108
0.936472
0.946095
0.93354
0.945279
0.940743
0.946995
0.941443
0.934843
0.935192
0.930767
0.939194
0.934387
0.929233
0.92717
0.940092
0.936174
0.942265
0.923265
0.923662
0.925056
0.922758
0.925803
0.92481
0.927982
0.928438
0.928761
0.942281
0.930542
0.949162
0.950799
0.947941
0.952847
0.952097
0.957925
0.968945
0.975984
0.966115
0.954826
0.961511
0.955383
0.966342
0.940115
0.946576
0.958785
0.960972
0.962745
0.976616
0.975231
0.979672
0.979405
0.985368
0.982675
0.979489
0.987842
0.998061
0.996449
0.995981
0.975396
0.985983
0.994759
0.996511
0.996658
0.991677
0.997529
0.988008
0.993977
0.983967
0.984527
0.930737
0.950656
0.951645
0.956321
0.925747
0.92701
0.926393
0.927237
0.925018
0.923267
0.927469
0.924184
0.924883
0.923402
0.923654
0.92637
0.924493
0.929945
0.925959
0.953298
0.956403
0.958679
0.97407
0.945695
0.946096
0.943346
0.953777
0.945443
0.954094
0.961632
0.963357
0.956931
0.96331
0.971696
0.965022
0.97762
0.97384
0.976259
0.978342
0.979415
0.924675
0.924324
0.927886
0.926142
0.924227
0.924113
0.92317
0.919587
0.920266
0.923843
0.924291
0.922535
0.923549
0.923302
0.923066
0.923911
0.922568
0.922688
0.957185
0.956072
0.967339
0.964359
0.960063
0.975523
0.970194
0.973578
0.972421
0.970661
0.956913
0.961327
0.955124
0.957419
0.958819
0.967289
0.946343
0.993729
0.987902
0.994315
0.988559
0.986174
0.976497
0.980147
0.986657
0.98193
0.98898
0.980238
1.0024
0.988743
0.989614
0.994825
0.987785
0.976863
0.97861
0.984731
0.990442
0.977289
0.981739
0.987182
0.969851
0.967772
0.972335
0.973947
0.976278
0.97511
0.97457
0.935775
0.933579
0.939642
0.935706
0.931435
0.933765
0.94489
0.94155
0.941826
0.946102
0.928591
0.927939
0.924164
0.923944
0.925851
0.932739
0.929934
0.929537
0.94296
0.93072
0.936554
0.947085
0.932987
0.934485
0.945033
0.940835
0.939507
0.946207
0.941465
0.934252
0.938972
0.935045
0.932738
0.928452
0.93473
0.932857
0.930243
0.927759
0.927841
0.939012
0.934868
0.939667
0.943651
0.923094
0.921173
0.922508
0.923718
0.925962
0.920393
0.922285
0.921557
0.927203
0.924782
0.929379
0.922926
0.924027
0.935762
0.946296
0.93307
0.949291
0.9507
0.948209
0.952516
0.947369
0.951531
0.950262
0.954635
0.958392
0.972319
0.974328
0.976819
0.962334
0.952745
0.956471
0.965299
0.960057
0.957766
0.976712
0.968246
0.941074
0.937003
0.942653
0.951117
0.94913
0.960464
0.963076
0.964925
0.979075
0.977118
0.981836
0.980764
0.991154
0.984961
0.984612
0.98225
0.992124
0.999467
0.999355
1.00013
0.999709
0.990578
1.00086
1.003
1.00326
1.00119
0.997117
0.987041
1
0.98569
0.930058
0.954087
0.956123
0.924638
0.924679
0.925722
0.923705
0.92392
0.922894
0.922456
0.921293
0.923283
0.922253
0.927852
0.925977
0.955975
0.945792
0.952876
0.943616
0.951695
0.943891
0.946884
0.953718
0.964238
0.962244
0.963272
0.971418
0.953661
0.959703
0.972929
0.970067
0.985333
0.979439
0.974526
0.981221
0.983718
0.99108
0.922458
0.923856
0.923436
0.926071
0.924095
0.923305
0.921252
0.92036
0.919663
0.918101
0.918412
0.918426
0.920193
0.919446
0.924754
0.921223
0.920374
0.922532
0.92142
0.921745
0.922121
0.920961
0.920765
0.958254
0.968282
0.963389
0.973992
0.970247
0.970917
0.981402
0.969922
0.974947
0.969078
0.955483
0.958232
0.958031
0.960313
0.967776
0.953668
0.954864
0.957904
0.9618
0.966622
0.967149
0.945844
0.998081
0.995708
0.99202
1.00057
0.986891
0.992814
0.988722
0.982006
0.975979
0.992928
0.995409
0.97942
0.992604
0.994582
0.983407
1.00893
0.996228
0.996384
0.985469
0.995161
0.994306
0.980501
0.981073
0.987048
0.989028
0.978766
0.984418
0.988341
0.969121
0.973993
0.97723
0.974175
0.98049
0.936253
0.934588
0.931998
0.94044
0.934825
0.934356
0.929332
0.930448
0.932906
0.942757
0.945297
0.941588
0.940377
0.945641
0.927627
0.926168
0.927822
0.924694
0.923658
0.924592
0.919994
0.927219
0.92287
0.932955
0.930094
0.929849
0.938372
0.929709
0.929911
0.935578
0.94108
0.929713
0.932611
0.933658
0.946674
0.943816
0.936581
0.93948
0.938921
0.94013
0.943503
0.951173
0.938345
0.936511
0.930088
0.933316
0.929115
0.928261
0.924928
0.93806
0.941844
0.935189
0.938154
0.942241
0.944175
0.921735
0.922468
0.921115
0.918599
0.919768
0.921727
0.922634
0.924416
0.918853
0.919044
0.919891
0.920307
0.927594
0.932435
0.921052
0.924335
0.931529
0.926645
0.917923
0.924065
0.941008
0.947507
0.948094
0.952501
0.923537
0.928879
0.947152
0.949008
0.950586
0.950309
0.945254
0.946589
0.952782
0.950381
0.95029
0.947856
0.952471
0.95482
0.960521
0.974676
0.982515
0.974679
0.96853
0.960531
0.960615
0.949371
0.951836
0.949591
0.975524
0.96265
0.960081
0.982469
0.964707
0.978579
0.943618
0.940529
0.936257
0.942423
0.951116
0.960653
0.96316
0.965355
0.981251
0.978845
0.983525
0.982315
0.995343
0.990441
0.988649
0.983499
0.999637
0.999832
1.00469
1.00583
0.998506
1.00671
1.00642
1.00481
0.998896
0.992408
1.00298
0.989884
0.954112
0.955014
0.925275
0.921447
0.921628
0.922276
0.920314
0.922088
0.949769
0.95309
0.944077
0.951758
0.946464
0.946677
0.946886
0.956193
0.963663
0.969208
0.963132
0.96142
0.969085
0.970897
0.974891
0.955779
0.952671
0.959112
0.96816
0.982512
0.990389
0.981497
0.981808
0.9853
0.990893
0.922659
0.922201
0.921305
0.924486
0.922266
0.919825
0.921118
0.919896
0.918968
0.919331
0.92002
0.916955
0.917296
0.916875
0.917712
0.915493
0.917788
0.91533
0.92134
0.925127
0.917449
0.917801
0.920901
0.920344
0.921396
0.919908
0.918025
0.958746
0.962783
0.973238
0.969091
0.973269
0.981111
0.971812
0.969439
0.973416
0.969599
0.954839
0.957295
0.961438
0.963045
0.957772
0.957549
0.964565
0.969512
0.968086
0.95268
0.95507
0.956521
0.960183
0.965793
0.965841
0.998056
1.00649
1.00062
1.0067
0.995789
0.990018
0.991853
0.994602
0.992364
0.99516
0.984272
0.995263
0.995025
1.00189
0.987978
0.997737
0.997678
0.990883
0.996525
0.982042
1.01316
1.00122
0.995022
0.998821
0.993403
0.992902
0.997164
0.980597
0.983732
0.988616
0.991768
0.988318
0.978363
0.984202
0.982772
0.992579
0.971706
0.976993
0.975849
0.97977
0.937341
0.93256
0.934117
0.928974
0.931768
0.933358
0.943524
0.938644
0.940717
0.942815
0.942332
0.926754
0.925982
0.924943
0.923781
0.92476
0.919616
0.92258
0.918317
0.917738
0.919199
0.925774
0.919938
0.922916
0.932753
0.933464
0.927555
0.926294
0.926295
0.930218
0.923956
0.930583
0.939961
0.940152
0.926262
0.931029
0.931145
0.944297
0.942765
0.936655
0.940321
0.937343
0.938764
0.937083
0.944609
0.950263
0.93659
0.930309
0.933775
0.930223
0.928976
0.929007
0.926544
0.924576
0.920991
0.938064
0.941829
0.941737
0.934278
0.936981
0.942145
0.942797
0.943598
0.919958
0.91936
0.918537
0.917696
0.917251
0.917758
0.915184
0.917922
0.916719
0.916667
0.918737
0.918748
0.929309
0.933279
0.918803
0.92425
0.932137
0.922985
0.921015
0.91707
0.920378
0.936209
0.936071
0.943273
0.948925
0.94709
0.948605
0.951938
0.952665
0.918863
0.91714
0.922378
0.946999
0.951273
0.953021
0.945492
0.945552
0.94791
0.951571
0.952048
0.950667
0.949972
0.948375
0.946362
0.952547
0.956765
0.96398
0.977638
0.981749
0.981924
0.980526
0.972718
0.963361
0.964333
0.958999
0.961188
0.95607
0.941432
0.948719
0.951435
0.948781
0.955335
0.983267
0.972669
0.986921
0.982437
0.954827
0.970864
0.977905
0.977225
0.951716
0.935663
0.937794
0.936814
0.932409
0.937057
0.934545
0.950716
0.9602
0.964624
0.986013
0.98309
0.988389
0.99617
0.986543
0.988718
0.991066
1.00472
1.00943
1.01305
1.00979
0.999663
1.00403
1.00938
1.01712
1.01678
0.99914
1.00223
0.993799
1.00711
1.00417
0.956433
0.918075
0.920804
0.919817
0.949644
0.946084
0.950739
0.953042
0.946382
0.948555
0.967684
0.970237
0.967143
0.962158
0.968389
0.970209
0.972147
0.971943
0.981828
0.954605
0.955642
0.948328
0.9568
0.965329
0.96854
0.977315
0.989048
0.978859
0.986782
0.985188
0.988978
0.993468
0.920279
0.91857
0.924993
0.918977
0.9183
0.917436
0.917266
0.916638
0.917959
0.91909
0.918672
0.915486
0.917344
0.915337
0.916218
0.914999
0.912801
0.916016
0.911074
0.915105
0.91753
0.918871
0.912634
0.917195
0.914776
0.915975
0.917753
0.918723
0.916914
0.916239
0.969648
0.979006
0.968535
0.969979
0.978434
0.985739
0.970406
0.968068
0.97627
0.967908
0.953418
0.956932
0.956804
0.960685
0.96428
0.958752
0.954594
0.959746
0.962629
0.968947
0.967531
0.952579
0.953509
0.955393
0.963172
0.960555
0.965681
0.966626
1.00597
1.00154
1.00789
1.01616
1.01749
1.0146
1.00371
0.997177
0.993983
0.992468
0.99941
0.997874
0.987458
1.00187
1.00659
0.999618
0.999944
1.00847
0.991057
1.00169
1.00546
1.00552
1.00031
0.996175
0.995816
0.999685
0.989703
1.01651
1.00962
1.01979
0.999598
0.995646
0.995547
0.999776
0.999155
0.983005
0.986171
0.990639
0.983879
0.982406
0.987615
0.995446
0.992012
0.980093
0.936048
0.931573
0.932853
0.934996
0.92875
0.930901
0.93211
0.931412
0.938067
0.9427
0.943922
0.941816
0.926285
0.925471
0.920821
0.919415
0.91782
0.917539
0.917833
0.916387
0.917781
0.92474
0.919702
0.922305
0.930718
0.934527
0.92953
0.925948
0.926785
0.922247
0.923308
0.928485
0.923988
0.927554
0.938512
0.926172
0.927018
0.932216
0.944194
0.943016
0.936106
0.936174
0.938231
0.935938
0.937524
0.933126
0.943017
0.943725
0.945886
0.94984
0.932981
0.931093
0.926632
0.921811
0.924122
0.919229
0.939146
0.941075
0.939902
0.934233
0.935656
0.936819
0.942628
0.943383
0.945179
0.946965
0.918659
0.917472
0.917613
0.916025
0.914386
0.915585
0.912042
0.914255
0.915165
0.915295
0.91684
0.916894
0.932752
0.92886
0.934679
0.913613
0.919496
0.91539
0.926372
0.918118
0.914361
0.919993
0.921246
0.912306
0.914901
0.920014
0.932998
0.938618
0.937894
0.930295
0.945152
0.943773
0.946921
0.950818
0.954283
0.953852
0.94664
0.954015
0.958447
0.921145
0.913373
0.915908
0.920208
0.923488
0.946499
0.95106
0.944245
0.946444
0.951769
0.950653
0.953455
0.94817
0.949474
0.948175
0.947847
0.946225
0.952814
0.955159
0.954451
0.962893
0.968897
0.970378
0.980552
0.993659
0.981072
0.982604
0.985911
0.97501
0.963171
0.963158
0.971235
0.963928
0.95927
0.954017
0.95523
0.956117
0.954097
0.94041
0.943715
0.950208
0.950636
0.95044
0.953325
0.986675
0.966692
0.966178
0.995095
0.987301
0.990287
0.958331
0.966639
0.977142
0.980812
0.977062
0.948296
0.93039
0.933442
0.937646
0.933901
0.937911
0.933826
0.940388
0.957108
0.963548
0.986362
0.990178
0.987739
0.992838
0.999492
0.994098
0.995748
1.01739
1.01892
1.01653
1.00956
1.01575
1.03024
1.00632
1.02426
1.00037
1.00583
1.01078
1.00721
0.917009
0.916911
0.945524
0.951945
0.954245
0.945673
0.948841
0.948928
0.967746
0.96395
0.968862
0.969457
0.979694
0.974258
0.977584
0.984989
0.959051
0.952588
0.957974
0.950959
0.960726
0.965579
0.963518
0.969849
0.972324
0.97621
0.989604
0.985192
0.992521
0.987761
0.988333
0.990603
0.995321
0.918216
0.916832
0.921127
0.916777
0.917871
0.915741
0.915278
0.917667
0.916631
0.913659
0.914686
0.915048
0.916269
0.91407
0.91488
0.916094
0.913734
0.912643
0.913939
0.914203
0.911262
0.909677
0.914215
0.915898
0.916845
0.919882
0.910384
0.912694
0.911941
0.916668
0.912133
0.912845
0.91313
0.917107
0.915621
0.915111
0.969373
0.972971
0.98005
0.967816
0.972814
0.970145
0.975205
0.981834
0.984488
0.972732
0.979952
0.976214
0.966938
0.952852
0.958224
0.956621
0.956723
0.96338
0.962654
0.957066
0.952827
0.957957
0.962206
0.964976
0.967929
0.973958
0.968654
0.957868
0.963088
0.968354
0.966666
1.01991
1.0065
1.02295
1.00757
1.01734
1.02768
1.03089
1.01852
1.0167
1.00282
0.999554
0.992957
1.00143
0.996872
0.983119
0.990932
1.00052
1.00424
1.00581
1.01795
0.994308
1.0201
1.02358
0.989059
1.00704
1.01572
1.021
1.00682
0.998123
0.998648
1.00672
1.02611
1.01422
1.03132
1.00487
0.997511
0.993466
1.0029
0.998222
1.00459
0.986366
0.989202
0.989024
0.987188
0.98322
0.986107
0.99324
0.993385
0.933253
0.926673
0.928721
0.929434
0.931153
0.932449
0.931983
0.937767
0.942177
0.941643
0.925469
0.925469
0.922396
0.918863
0.916522
0.916206
0.917131
0.915104
0.916029
0.925022
0.920066
0.920233
0.921765
0.928326
0.930859
0.93179
0.927698
0.924728
0.925
0.918968
0.920794
0.924283
0.919468
0.919172
0.929839
0.93926
0.934693
0.926423
0.925679
0.930665
0.942862
0.943517
0.939857
0.935911
0.935635
0.937579
0.936873
0.933152
0.932914
0.933115
0.944005
0.938822
0.943997
0.94055
0.946303
0.944842
0.933676
0.931297
0.926612
0.920632
0.922501
0.922879
0.921278
0.919357
0.938577
0.943544
0.935119
0.938124
0.934347
0.941479
0.942519
0.943716
0.944798
0.946649
0.944426
0.948173
0.914769
0.916557
0.913201
0.913716
0.913881
0.914538
0.913082
0.911998
0.910297
0.913315
0.91159
0.913833
0.914705
0.912175
0.914671
0.914807
0.930566
0.932256
0.914031
0.912315
0.917253
0.915722
0.913129
0.923318
0.910508
0.919488
0.913622
0.919707
0.916223
0.913578
0.914329
0.914578
0.915839
0.93357
0.930366
0.923969
0.940654
0.940827
0.92481
0.936305
0.947053
0.957806
0.957886
0.954231
0.945786
0.948185
0.953531
0.952439
0.950425
0.95156
0.951642
0.959488
0.971074
0.920503
0.910855
0.913238
0.916997
0.920511
0.919609
0.948634
0.943294
0.946401
0.94966
0.949634
0.952139
0.947638
0.950901
0.94779
0.947745
0.944835
0.944829
0.953449
0.957347
0.952895
0.951569
0.96164
0.964657
0.969073
0.972101
0.984362
0.986242
0.988736
0.993482
0.980971
0.981401
0.987496
0.983432
0.975566
0.964335
0.968753
0.956406
0.967841
0.971914
0.957735
0.959173
0.961245
0.951992
0.951659
0.950486
0.950165
0.939172
0.941482
0.947363
0.945303
0.946644
0.950732
0.967168
0.973874
0.999654
0.991072
0.997528
0.991042
0.956832
0.970856
0.980993
0.979948
0.978371
0.950683
0.930917
0.929804
0.933849
0.936734
0.935221
0.930568
0.934732
0.937487
0.930034
0.932889
0.93861
0.95555
0.987266
0.991614
0.991152
0.99373
1.00009
0.99335
0.996769
1.02758
1.02336
1.01719
1.01166
1.01118
1.0204
1.01376
1.03613
1.00993
1.03267
1.02384
1.00697
1.00888
1.01233
1.00854
0.951595
0.948498
0.947875
0.962198
0.971006
0.972385
0.982679
0.985128
0.974797
0.986114
0.987707
0.954035
0.957787
0.95953
0.950814
0.966455
0.965243
0.966415
0.973733
0.978633
0.980767
0.992651
0.994777
0.993683
0.995977
0.999008
0.915991
0.92028
0.918396
0.915723
0.912901
0.917745
0.914971
0.913928
0.915348
0.913578
0.912721
0.911663
0.910638
0.909637
0.913072
0.910927
0.91396
0.912962
0.909816
0.908895
0.910782
0.911348
0.913016
0.911924
0.915164
0.914472
0.919447
0.911717
0.910577
0.91283
0.909365
0.914468
0.912261
0.910247
0.909633
0.912281
0.97207
0.973296
0.977675
0.966457
0.969087
0.971838
0.96813
0.978759
0.984199
0.978774
0.95468
0.957587
0.954355
0.964975
0.962524
0.961405
0.964618
0.956912
0.959338
0.951456
0.955487
0.956396
0.960801
0.962911
0.964472
0.970105
0.966755
0.972842
0.976931
0.964808
0.9671
1.01304
1.02577
1.02045
1.00491
1.02456
1.01906
1.02508
1.01959
1.03742
1.03707
1.03315
1.02041
1.02292
1.00948
0.996723
0.998017
1.00404
0.999819
0.996871
0.982271
0.988139
0.989296
1.0034
1.0047
1.0163
1.01806
1.02757
1.00606
1.01838
1.02453
1.02923
1.0053
1.00714
1.00892
1.01343
1.02067
1.02447
1.01537
1.00505
0.996247
1.00283
1.01326
1.02752
1.03567
1.00339
1.00593
1.00033
1.01222
0.992111
0.985667
0.989952
0.985396
0.996979
0.993285
0.925947
0.927413
0.929697
0.93118
0.933466
0.940296
0.939954
0.922011
0.916205
0.914263
0.915665
0.914779
0.9156
0.913644
0.922032
0.918829
0.916499
0.92094
0.928332
0.931769
0.931515
0.924191
0.921926
0.921312
0.926068
0.917117
0.919553
0.92358
0.915302
0.918216
0.920708
0.927307
0.935347
0.925968
0.926896
0.930666
0.942903
0.942557
0.939308
0.938019
0.933253
0.937237
0.93422
0.932849
0.931446
0.932711
0.932671
0.943784
0.938878
0.939415
0.935164
0.943759
0.939912
0.945537
0.946311
0.929075
0.923561
0.920346
0.924756
0.921367
0.924239
0.920633
0.92386
0.920768
0.91807
0.943581
0.93553
0.934632
0.934468
0.941818
0.944105
0.947757
0.94749
0.945472
0.947499
0.944916
0.949002
0.912605
0.913784
0.911278
0.912747
0.913924
0.913339
0.913116
0.911523
0.910722
0.912494
0.911289
0.910885
0.907806
0.910794
0.911478
0.912022
0.912466
0.913694
0.910783
0.910868
0.913301
0.913767
0.929361
0.933637
0.910632
0.91071
0.912129
0.912301
0.914854
0.917934
0.925285
0.911997
0.912456
0.917828
0.918193
0.911593
0.915748
0.916011
0.911703
0.912345
0.913072
0.914716
0.914602
0.913683
0.948126
0.936594
0.931434
0.929255
0.940518
0.940435
0.933739
0.933602
0.931796
0.950478
0.956502
0.963216
0.958401
0.966543
0.949734
0.949251
0.951003
0.955099
0.956511
0.95055
0.954169
0.951497
0.951233
0.950655
0.955247
0.958215
0.95954
0.918104
0.913176
0.905466
0.910839
0.912543
0.920142
0.917807
0.922384
0.916053
0.914758
0.917098
0.944941
0.948294
0.952264
0.949246
0.949211
0.946359
0.946138
0.944033
0.944453
0.954849
0.950011
0.957484
0.951771
0.949013
0.948144
0.961704
0.966416
0.966717
0.984138
0.992498
0.985527
0.991229
1.01133
0.978545
0.979201
0.985771
0.986964
0.983056
0.973526
0.970542
0.973744
0.966693
0.959665
0.956335
0.955177
0.975314
0.967929
0.972951
0.986908
0.952163
0.962833
0.952425
0.956952
0.958414
0.951135
0.948222
0.947332
0.949843
0.949759
0.94625
0.934361
0.939763
0.941605
0.944344
0.945593
0.964511
0.956501
0.971848
0.999545
1.00141
1.0055
0.998203
0.990774
0.994135
0.96865
0.981014
0.992428
0.98152
0.979526
0.944227
0.928941
0.923689
0.933525
0.934073
0.930937
0.929376
0.939256
0.934546
0.934736
0.928591
0.930323
0.949612
0.930217
0.96006
0.992474
1.00249
1.00022
1.00017
0.997094
1.00392
1.02756
1.02905
1.02632
1.02484
1.00968
1.01514
1.02525
1.02017
1.04882
1.00982
1.04119
1.03789
1.02288
1.00507
1.0166
1.00967
0.949408
0.950701
0.964155
0.981025
0.972062
0.983481
0.984067
0.985611
0.980495
0.986478
0.987452
0.953433
0.959359
0.968193
0.969427
0.962715
0.967739
0.977298
0.970395
0.979876
0.979813
0.997818
0.997404
0.996831
1.00007
0.913808
0.919386
0.916103
0.911264
0.913617
0.911127
0.913417
0.908248
0.908885
0.908489
0.90975
0.91236
0.90988
0.912623
0.908686
0.909216
0.907622
0.910772
0.909822
0.909842
0.915826
0.915792
0.915637
0.911416
0.910174
0.909706
0.908828
0.910852
0.908572
0.910889
0.906549
0.906846
0.908689
0.975687
0.971976
0.97162
0.975182
0.978412
0.978234
0.96689
0.975286
0.982226
0.982264
0.959416
0.954276
0.963075
0.963133
0.956112
0.957607
0.950475
0.954621
0.956154
0.959333
0.96228
0.963503
0.965594
0.969361
0.96852
0.967586
0.975047
0.969084
1.01436
1.01917
1.02956
1.03523
1.0176
1.02796
1.00678
1.03236
1.01934
1.02791
1.03688
1.0524
1.05208
1.05088
1.01513
1.0356
1.03717
1.00667
1.00011
0.995285
1.00099
0.993846
1.00425
1.0038
0.992624
0.991777
1.00302
0.987169
0.985965
1.00293
1.01078
1.00443
1.02064
1.01612
1.02721
1.03243
1.00894
1.01719
1.01895
1.02756
1.04385
1.00334
1.00961
1.01622
1.01481
1.00766
1.01658
1.01407
1.03378
1.01867
1.03547
1.01584
1.00417
1.00711
1.01265
1.00283
1.00004
1.03658
1.0429
1.04841
1.00565
1.01068
1.00309
0.989532
0.987279
0.997933
0.995694
0.927591
0.939203
0.920317
0.914716
0.918284
0.914287
0.921301
0.921297
0.920392
0.915058
0.915382
0.916223
0.926904
0.928958
0.927728
0.925852
0.919647
0.921062
0.925269
0.925311
0.915118
0.91555
0.920998
0.915568
0.913311
0.916212
0.918273
0.922928
0.923443
0.925926
0.925452
0.929382
0.931995
0.940888
0.941223
0.937554
0.933046
0.934406
0.932584
0.932167
0.9308
0.930983
0.930618
0.934536
0.944882
0.937469
0.938472
0.939442
0.934499
0.944433
0.942368
0.938859
0.938778
0.944769
0.930082
0.918406
0.921065
0.920859
0.924223
0.918458
0.921257
0.925216
0.916842
0.921319
0.934972
0.938355
0.940299
0.934989
0.940514
0.942834
0.945754
0.94915
0.942587
0.943852
0.951589
0.910029
0.910709
0.910198
0.910346
0.910365
0.910105
0.909308
0.910569
0.909666
0.910049
0.908191
0.907935
0.908574
0.910635
0.910256
0.909732
0.911943
0.910062
0.909062
0.909601
0.911873
0.911582
0.914814
0.929998
0.935172
0.907382
0.906993
0.909698
0.9107
0.910844
0.912277
0.915387
0.913892
0.927375
0.92835
0.910634
0.912054
0.911653
0.912346
0.913234
0.921213
0.911085
0.911083
0.923821
0.91488
0.911432
0.910087
0.91057
0.910388
0.912731
0.913154
0.91389
0.911959
0.911773
0.940341
0.940929
0.932399
0.929287
0.93366
0.929711
0.926546
0.937763
0.941772
0.939347
0.937822
0.951577
0.930783
0.929435
0.930817
0.966149
0.954486
0.963504
0.959166
0.966343
0.960759
0.964105
0.966618
0.952011
0.948593
0.946359
0.952132