/*--------------------------------*- C++ -*----------------------------------*\
| =========                 |                                                 |
| \\      /  F ield         | OpenFOAM: The Open Source CFD Toolbox           |
|  \\    /   O peration     | Version:  v2006                                 |
|   \\  /    A nd           | Website:  www.openfoam.com                      |
|    \\/     M anipulation  |                                                 |
\*---------------------------------------------------------------------------*/
FoamFile
{
    version     2.0;
    format      ascii;
    class       volScalarField;
    location    "14.8";
    object      pMean;
}
// * * * * * * * * * * * * * * * * * * * * * * * * * * * * * * * * * * * * * //

dimensions      [1 -1 -2 0 0 0 0];


internalField   nonuniform List<scalar> 
341797
(
0.951304
0.951395
0.953401
0.948992
0.951858
0.952368
0.953884
0.956055
0.948944
0.948705
0.952031
0.953204
0.954041
0.953961
0.955621
0.956688
0.951217
0.948662
0.947302
0.94817
0.951281
0.954169
0.953518
0.957803
0.953657
0.95548
0.955443
0.956507
0.957533
0.951608
0.946853
0.947832
0.946765
0.94823
0.953084
0.950529
0.957269
0.954032
0.957911
0.95291
0.957251
0.955635
0.957053
0.957171
0.96146
0.949588
0.950524
0.946233
0.944284
0.947586
0.944389
0.946183
0.94717
0.953852
0.947955
0.951263
0.957762
0.955118
0.956043
0.96075
0.959203
0.953747
0.949379
0.956615
0.955606
0.956302
0.957385
0.957718
0.961128
0.961858
0.962484
0.949249
0.950091
0.952826
0.946538
0.943338
0.942524
0.94669
0.943199
0.94541
0.956868
0.953218
0.946507
0.946788
0.948497
0.960407
0.954508
0.957958
0.956549
0.961382
0.961215
0.952074
0.953152
0.948706
0.958429
0.957172
0.958373
0.959982
0.960309
0.961759
0.962896
0.964124
0.948933
0.948874
0.951891
0.9532
0.943248
0.941866
0.942882
0.941207
0.942421
0.946725
0.941817
0.942651
0.957757
0.955587
0.950413
0.94486
0.944963
0.947554
0.960966
0.956614
0.954769
0.959769
0.957469
0.962505
0.961835
0.963013
0.95381
0.949212
0.955693
0.94987
0.947495
0.959732
0.957682
0.959129
0.960325
0.962327
0.960562
0.961629
0.965213
0.963157
0.966686
0.967324
0.948665
0.948673
0.952279
0.952923
0.943222
0.941549
0.94087
0.943392
0.939412
0.941561
0.947004
0.942288
0.95771
0.955371
0.948037
0.94784
0.9449
0.942587
0.963538
0.956483
0.956998
0.956729
0.961796
0.961702
0.960508
0.958333
0.965085
0.96338
0.964063
0.953378
0.948772
0.955996
0.951289
0.947954
0.958867
0.956869
0.958851
0.959812
0.961797
0.962963
0.962386
0.966971
0.966328
0.962054
0.967761
0.967773
0.969042
0.944879
0.948291
0.95044
0.952016
0.95537
0.941444
0.941816
0.938492
0.941797
0.938945
0.939487
0.942026
0.943093
0.942055
0.957019
0.961387
0.95407
0.956141
0.943863
0.94868
0.944507
0.943477
0.942206
0.955956
0.956671
0.959928
0.955791
0.963214
0.960166
0.961831
0.95641
0.965075
0.965513
0.964449
0.962946
0.966699
0.951842
0.950974
0.949247
0.947975
0.944155
0.956983
0.959489
0.959222
0.960611
0.962193
0.963846
0.963082
0.965372
0.966222
0.968961
0.968663
0.964619
0.969547
0.97023
0.968797
0.970772
0.945587
0.943145
0.950025
0.950987
0.953541
0.955117
0.93996
0.940456
0.938262
0.937807
0.940176
0.941329
0.93701
0.938317
0.938973
0.942088
0.941285
0.942313
0.955227
0.959497
0.962061
0.95135
0.95064
0.959757
0.94231
0.943569
0.947406
0.943267
0.942135
0.958014
0.959101
0.954982
0.961472
0.955071
0.964585
0.961626
0.961613
0.956767
0.967404
0.96666
0.965858
0.964603
0.968769
0.966661
0.950282
0.947512
0.946953
0.944007
0.94444
0.942875
0.956412
0.959279
0.959513
0.961102
0.962423
0.964367
0.965187
0.965821
0.96838
0.972585
0.968036
0.968032
0.963797
0.973027
0.971593
0.975956
0.972423
0.971604
0.974059
0.944724
0.942895
0.949449
0.950901
0.953979
0.954653
0.939269
0.939082
0.937706
0.936965
0.9366
0.939047
0.940747
0.935129
0.937323
0.939058
0.937436
0.940537
0.939939
0.954711
0.959205
0.961967
0.964097
0.950753
0.949175
0.951469
0.957984
0.942299
0.946141
0.942027
0.94093
0.958273
0.958504
0.955062
0.96224
0.961619
0.962732
0.955613
0.968653
0.966065
0.967381
0.970193
0.965974
0.967136
0.95082
0.945131
0.944138
0.953278
0.947609
0.944705
0.94075
0.946023
0.941627
0.95791
0.959578
0.962275
0.961173
0.958813
0.961023
0.962183
0.964418
0.965231
0.968156
0.966315
0.968866
0.97293
0.969228
0.97019
0.974139
0.975923
0.977639
0.978577
0.977292
0.975955
0.976292
0.947092
0.94419
0.941199
0.950145
0.953146
0.953536
0.95609
0.939344
0.938268
0.937875
0.937245
0.933498
0.934924
0.939238
0.934147
0.935317
0.936954
0.937756
0.938488
0.9404
0.941999
0.953209
0.95949
0.960802
0.965816
0.948976
0.951497
0.951755
0.960794
0.938203
0.943933
0.938875
0.9376
0.957957
0.959071
0.953878
0.962278
0.963528
0.964306
0.955206
0.965913
0.971425
0.968646
0.9715
0.97782
0.96764
0.96797
0.968019
0.953098
0.947
0.942441
0.946854
0.953122
0.952417
0.94514
0.947785
0.942763
0.936376
0.939612
0.940813
0.955802
0.96061
0.965837
0.956642
0.961335
0.962829
0.964807
0.966082
0.967864
0.97013
0.969371
0.971333
0.976892
0.972744
0.971503
0.977465
0.978041
0.980274
0.978096
0.980978
0.978742
0.977952
0.97658
0.947464
0.942144
0.940189
0.951929
0.952823
0.95473
0.956405
0.937736
0.938399
0.93613
0.937722
0.933446
0.932988
0.934759
0.933535
0.938168
0.932283
0.933113
0.934098
0.939489
0.935146
0.940553
0.95687
0.961157
0.9627
0.966946
0.948515
0.949929
0.949363
0.956548
0.963438
0.93717
0.941861
0.935715
0.938736
0.935352
0.935161
0.959874
0.956723
0.960931
0.965158
0.963133
0.966242
0.953826
0.969605
0.976277
0.97135
0.976597
0.977691
0.97288
0.967129
0.972395
0.971122
0.952056
0.943198
0.949956
0.942374
0.940642
0.950411
0.951549
0.945397
0.949659
0.945944
0.940009
0.938393
0.941986
0.938178
0.953592
0.957283
0.96133
0.963446
0.957096
0.961753
0.963183
0.965244
0.966526
0.968025
0.970582
0.97283
0.972078
0.974868
0.977809
0.979067
0.981591
0.981205
0.975868
0.980439
0.983498
0.9816
0.980091
0.97942
0.977149
0.978188
0.946859
0.941165
0.940691
0.951767
0.952653
0.955107
0.955852
0.935387
0.936777
0.937964
0.93466
0.932199
0.932787
0.932064
0.934458
0.933206
0.931252
0.932695
0.932584
0.933669
0.937406
0.956577
0.962507
0.96303
0.970996
0.948841
0.951031
0.952939
0.958245
0.966672
0.934904
0.934131
0.935256
0.93892
0.933593
0.934866
0.934735
0.959959
0.956016
0.962102
0.965079
0.963194
0.968617
0.954146
0.976889
0.976988
0.973697
0.975799
0.981315
0.979654
0.979786
0.972807
0.968314
0.970845
0.976281
0.969527
0.97394
0.941898
0.942908
0.947596
0.950519
0.940721
0.939091
0.941199
0.952698
0.94867
0.954416
0.943352
0.946666
0.948452
0.943977
0.939168
0.940299
0.939748
0.936546
0.940183
0.934738
0.937628
0.954461
0.956429
0.958389
0.961455
0.969634
0.954654
0.960924
0.962887
0.964855
0.967345
0.971876
0.971475
0.975355
0.975297
0.980993
0.981962
0.984176
0.984257
0.976516
0.980356
0.984605
0.986197
0.982691
0.985398
0.984879
0.979753
0.977403
0.949441
0.939215
0.952106
0.953444
0.954672
0.958514
0.933984
0.936258
0.936077
0.932998
0.932689
0.932821
0.93075
0.933546
0.933558
0.932429
0.933548
0.931748
0.931438
0.933598
0.933646
0.933604
0.937259
0.955653
0.962236
0.965798
0.974078
0.971648
0.945868
0.950619
0.952428
0.946862
0.958056
0.959303
0.96602
0.934594
0.934762
0.936313
0.93136
0.932318
0.930853
0.934039
0.959495
0.959531
0.960449
0.967417
0.965824
0.974943
0.966838
0.952327
0.978558
0.977248
0.977377
0.975874
0.982981
0.978727
0.984628
0.979431
0.970864
0.974701
0.970382
0.968873
0.973782
0.972963
0.941932
0.941881
0.940678
0.947209
0.949268
0.939884
0.935366
0.940035
0.942821
0.950851
0.948189
0.942829
0.951396
0.944083
0.948461
0.939647
0.937307
0.94234
0.938865
0.933502
0.940005
0.93343
0.929692
0.932702
0.941732
0.952736
0.954874
0.957028
0.963189
0.967558
0.964011
0.956092
0.956634
0.963827
0.964834
0.967501
0.970332
0.97505
0.975174
0.975968
0.977203
0.975281
0.984925
0.979775
0.985517
0.988009
0.986538
0.985702
0.980102
0.980628
0.982743
0.989781
0.989349
0.987791
0.987656
0.98763
0.986596
0.986254
0.978573
0.950113
0.938706
0.953817
0.95586
0.958226
0.931706
0.932259
0.934086
0.93573
0.932185
0.930326
0.93167
0.930011
0.933278
0.930253
0.933427
0.929991
0.931358
0.931579
0.932232
0.933796
0.957938
0.960459
0.964116
0.965673
0.974969
0.945577
0.948977
0.949735
0.947886
0.950047
0.958185
0.962885
0.958957
0.967012
0.974273
0.931619
0.930778
0.936302
0.930412
0.929221
0.931835
0.928374
0.93054
0.930287
0.962135
0.957824
0.963428
0.967847
0.964782
0.972314
0.975089
0.96419
0.963893
0.952396
0.978496
0.989528
0.978501
0.979176
0.977311
0.977253
0.978133
0.991172
0.98322
0.980962
0.983449
0.989517
0.976927
0.984131
0.968338
0.973031
0.975855
0.96936
0.972025
0.977128
0.973072
0.975726
0.939581
0.942893
0.94486
0.939213
0.938608
0.947636
0.950836
0.935858
0.933394
0.932034
0.937582
0.940816
0.945726
0.950321
0.942563
0.948229
0.952147
0.943588
0.945502
0.948609
0.939507
0.935559
0.940059
0.938468
0.934787
0.932152
0.940726
0.943619
0.92841
0.932697
0.928189
0.932126
0.931464
0.945984
0.936908
0.955515
0.954848
0.959589
0.962581
0.976492
0.965364
0.962797
0.966679
0.953808
0.956185
0.953728
0.963988
0.965489
0.967392
0.978752
0.97783
0.978455
0.977797
0.985799
0.983108
0.987161
0.993771
0.991109
0.992444
0.978448
0.981852
0.992975
0.994899
0.989427
0.99214
0.990185
0.988989
0.988031
0.981755
0.949342
0.937144
0.953385
0.956761
0.958044
0.931199
0.931896
0.933122
0.934578
0.931592
0.929031
0.929906
0.928256
0.931704
0.928256
0.931977
0.927281
0.930086
0.93042
0.929595
0.933532
0.931999
0.957686
0.959942
0.962919
0.9688
0.972888
0.945545
0.951641
0.949051
0.946122
0.95889
0.950843
0.962013
0.964537
0.967431
0.962453
0.965156
0.970907
0.9777
0.977206
0.978023
0.931182
0.930193
0.93115
0.929219
0.935234
0.928359
0.929491
0.926989
0.926556
0.928003
0.929146
0.928166
0.92918
0.927073
0.92638
0.927966
0.962049
0.957447
0.962939
0.973273
0.964721
0.964266
0.975245
0.973704
0.974822
0.961139
0.96601
0.962309
0.965626
0.950622
0.952809
0.99044
0.992416
0.989874
0.979394
0.981707
0.982722
0.982925
0.979326
0.995739
0.983282
0.991731
0.979395
0.981743
0.988797
0.97924
0.988925
0.97073
0.975028
0.979344
0.972909
0.975555
0.975067
0.94027
0.938535
0.944745
0.944878
0.93922
0.939581
0.950276
0.946013
0.947397
0.949556
0.934352
0.931272
0.929611
0.932887
0.940251
0.936477
0.945071
0.937123
0.940843
0.950535
0.938373
0.950297
0.9458
0.952152
0.945989
0.937763
0.938538
0.934023
0.94227
0.937368
0.932802
0.930498
0.943186
0.939335
0.945759
0.927292
0.927477
0.92905
0.926734
0.929862
0.9284
0.931098
0.931797
0.933021
0.945675
0.934189
0.95377
0.955441
0.952619
0.957528
0.957068
0.962486
0.973306
0.979495
0.970504
0.960058
0.966166
0.95966
0.971025
0.946249
0.950611
0.962957
0.964856
0.966402
0.979692
0.978273
0.982613
0.982332
0.988215
0.985626
0.98254
0.990623
1.00065
0.999096
0.998688
0.978984
0.989427
0.997625
0.999592
0.999397
0.99455
1.00032
0.990938
0.996645
0.986907
0.987435
0.93528
0.955197
0.956138
0.960677
0.929786
0.930841
0.930238
0.931435
0.928559
0.926794
0.930993
0.927625
0.928352
0.926927
0.927225
0.929954
0.928286
0.93448
0.930163
0.957285
0.960418
0.962553
0.977768
0.949399
0.949727
0.946874
0.957631
0.949048
0.957936
0.96555
0.967645
0.961101
0.967319
0.975436
0.968844
0.981436
0.977704
0.980278
0.982462
0.983256
0.928097
0.927307
0.93065
0.929146
0.928056
0.927644
0.926514
0.922617
0.923243
0.926952
0.927039
0.925797
0.92706
0.926842
0.926456
0.927409
0.926145
0.926091
0.961495
0.960456
0.971122
0.968285
0.964282
0.979231
0.974105
0.97728
0.976
0.974352
0.96144
0.965957
0.959612
0.961974
0.96318
0.971407
0.950869
0.996935
0.991431
0.997368
0.991703
0.989275
0.980194
0.984404
0.990383
0.985997
0.99259
0.984356
1.00525
0.992078
0.992908
0.998004
0.99129
0.979946
0.981739
0.987728
0.993495
0.980606
0.985035
0.990186
0.973217
0.971259
0.975578
0.977314
0.979564
0.978204
0.977651
0.940177
0.937957
0.944254
0.940332
0.936038
0.938517
0.949491
0.946302
0.946706
0.951002
0.933083
0.932613
0.928266
0.928011
0.930237
0.937543
0.935092
0.934427
0.94733
0.936362
0.94099
0.952183
0.937736
0.939284
0.950102
0.945822
0.944595
0.951284
0.945984
0.937092
0.941874
0.937849
0.935473
0.931192
0.937318
0.935819
0.933288
0.930142
0.930746
0.941805
0.937903
0.943034
0.947241
0.927025
0.9251
0.926334
0.927699
0.930002
0.923888
0.926237
0.924828
0.930059
0.927718
0.932628
0.926399
0.927924
0.938971
0.950151
0.93655
0.954002
0.955215
0.952947
0.957131
0.952137
0.956279
0.955107
0.959493
0.963084
0.976269
0.978359
0.980526
0.967056
0.95785
0.961401
0.969933
0.964709
0.962101
0.981074
0.972878
0.946198
0.942318
0.948282
0.955473
0.953142
0.964471
0.966879
0.968444
0.982039
0.980191
0.984742
0.983724
0.993894
0.987788
0.987512
0.985192
0.994919
1.00219
1.00189
1.00281
1.00239
0.99364
1.00342
1.00573
1.00592
1.00379
0.99951
0.989992
1.00243
0.988626
0.934627
0.958579
0.960547
0.928304
0.92853
0.93005
0.927151
0.927336
0.926359
0.926007
0.924725
0.926813
0.925946
0.932331
0.930224
0.960021
0.949463
0.956868
0.94705
0.955628
0.947492
0.950407
0.957495
0.968049
0.966132
0.967484
0.97555
0.957692
0.96423
0.976781
0.973968
0.9887
0.983057
0.978134
0.985166
0.987594
0.994545
0.925603
0.927118
0.926366
0.928648
0.927068
0.926631
0.924624
0.923675
0.922832
0.92125
0.921497
0.921484
0.9232
0.922543
0.927549
0.924133
0.923567
0.926035
0.925015
0.925258
0.925529
0.92449
0.923853
0.96252
0.971898
0.967424
0.97786
0.974168
0.974661
0.984719
0.973508
0.978264
0.972659
0.960153
0.962837
0.962611
0.964935
0.972067
0.95824
0.959448
0.962253
0.966108
0.970633
0.971083
0.950369
1.00129
0.999131
0.994927
1.00347
0.990018
0.995742
0.991787
0.985643
0.980364
0.996575
0.999025
0.983701
0.996327
0.998125
0.987279
1.01148
0.999074
0.999397
0.988932
0.998212
0.997538
0.983579
0.984101
0.989951
0.99194
0.982104
0.987543
0.991274
0.972552
0.977115
0.980447
0.977504
0.983599
0.94089
0.939079
0.936724
0.945035
0.939409
0.939098
0.933768
0.93523
0.93762
0.947451
0.949934
0.946403
0.94532
0.950613
0.932105
0.930598
0.932655
0.929035
0.927808
0.928781
0.924022
0.932216
0.927119
0.937825
0.934988
0.934636
0.943364
0.934295
0.936058
0.940745
0.946648
0.934461
0.937395
0.93862
0.951741
0.94885
0.941589
0.944445
0.944091
0.945243
0.948456
0.956168
0.941252
0.939317
0.932784
0.936204
0.931803
0.930864
0.927818
0.940722
0.944733
0.938149
0.941082
0.945713
0.94774
0.925511
0.926527
0.924727
0.922342
0.923544
0.925547
0.926752
0.928522
0.922475
0.922423
0.923656
0.92448
0.930495
0.935058
0.923795
0.927068
0.934265
0.929979
0.921127
0.928294
0.9439
0.951977
0.951962
0.95698
0.927746
0.932792
0.95184
0.953689
0.955168
0.955129
0.94993
0.951425
0.957485
0.955233
0.955142
0.952807
0.957333
0.959619
0.965303
0.978589
0.986224
0.978565
0.972778
0.965444
0.965371
0.954407
0.956819
0.954361
0.980065
0.967404
0.96463
0.986701
0.969724
0.982755
0.948676
0.945972
0.940921
0.947792
0.955805
0.96481
0.966972
0.968994
0.984211
0.981836
0.986327
0.985184
0.997939
0.993033
0.991374
0.986318
1.00225
1.00245
1.00745
1.00823
1.00141
1.00916
1.00912
1.0075
1.00145
0.995115
1.00538
0.992703
0.958558
0.959476
0.929617
0.924973
0.924993
0.925798
0.923667
0.925521
0.953607
0.956909
0.947586
0.955679
0.950002
0.950127
0.950393
0.959917
0.967714
0.973106
0.967166
0.965089
0.973362
0.974745
0.979146
0.959477
0.956229
0.963903
0.972659
0.986059
0.993697
0.985045
0.985785
0.988943
0.994393
0.926017
0.925431
0.924497
0.927353
0.925568
0.922982
0.924487
0.923095
0.922234
0.922537
0.923215
0.920072
0.920438
0.91986
0.920855
0.918618
0.920743
0.918419
0.924083
0.927898
0.920548
0.920959
0.924332
0.923605
0.924782
0.923098
0.921347
0.963036
0.966746
0.976997
0.973096
0.976993
0.984411
0.975293
0.973106
0.976792
0.973266
0.959497
0.961941
0.965815
0.96743
0.96237
0.962158
0.969025
0.973728
0.972208
0.957328
0.959626
0.961016
0.964491
0.9698
0.969665
1.00136
1.00939
1.0038
1.00991
0.998729
0.993181
0.995214
0.998231
0.995509
0.998048
0.988231
0.999165
0.99848
1.00529
0.991798
1.00121
1.00115
0.994429
0.999823
0.985971
1.01585
1.00445
0.997837
1.00169
0.996489
0.996037
1.00023
0.983567
0.986678
0.991464
0.994565
0.991268
0.9817
0.987368
0.985954
0.995464
0.975159
0.980116
0.979106
0.982843
0.941952
0.937257
0.938818
0.933616
0.93656
0.938219
0.948195
0.943501
0.945574
0.947565
0.947314
0.93131
0.930556
0.929282
0.92819
0.92912
0.923785
0.926687
0.92238
0.921408
0.923369
0.930223
0.924297
0.927344
0.937721
0.938797
0.9326
0.93144
0.930946
0.933739
0.928492
0.935537
0.945387
0.94556
0.930887
0.935893
0.936141
0.949389
0.947946
0.941564
0.945372
0.94254
0.944075
0.942432
0.949592
0.955107
0.9395
0.933141
0.936831
0.933252
0.931859
0.931617
0.929447
0.927246
0.924232
0.940741
0.944758
0.944837
0.937507
0.940036
0.945058
0.946061
0.947075
0.923714
0.923341
0.922204
0.921071
0.920685
0.921699
0.918821
0.921238
0.920145
0.920345
0.922576
0.922897
0.932337
0.936393
0.921921
0.927379
0.935282
0.92685
0.924866
0.920814
0.924601
0.939753
0.939361
0.946992
0.953181
0.951456
0.952763
0.956339
0.956825
0.922985
0.921988
0.927245
0.951713
0.955961
0.95757
0.950284
0.950402
0.952772
0.956394
0.956863
0.955473
0.954856
0.953314
0.951359
0.957445
0.961691
0.968437
0.981513
0.985568
0.985528
0.984287
0.976712
0.967859
0.968886
0.963878
0.965881
0.960625
0.94663
0.953669
0.956433
0.953801
0.960016
0.987212
0.977262
0.990933
0.986676
0.95984
0.975349
0.982184
0.9812
0.956178
0.940734
0.943032
0.942079
0.937612
0.942299
0.939788
0.955083
0.96432
0.968352
0.988821
0.985961
0.991049
0.998688
0.989186
0.991391
0.993794
1.00728
1.01187
1.01587
1.01217
1.00256
1.00687
1.01169
1.01963
1.01922
1.0017
1.00469
0.996461
1.00947
1.00648
0.960832
0.921245
0.924301
0.923093
0.953477
0.949386
0.954453
0.956666
0.949786
0.951772
0.97175
0.97415
0.971236
0.965832
0.972568
0.974522
0.976198
0.975992
0.985688
0.957985
0.958895
0.952106
0.96079
0.968849
0.972901
0.98142
0.992272
0.982682
0.990585
0.988865
0.992181
0.996899
0.923622
0.921837
0.927967
0.922039
0.921455
0.920539
0.920351
0.919864
0.921188
0.922388
0.921834
0.918713
0.920419
0.918466
0.919365
0.918156
0.915859
0.919142
0.914207
0.918115
0.920794
0.922261
0.916202
0.920281
0.917931
0.919277
0.921123
0.922228
0.920217
0.919585
0.973527
0.982698
0.972328
0.973792
0.981859
0.988884
0.973958
0.971775
0.979715
0.971556
0.958117
0.961509
0.961429
0.965035
0.968712
0.963325
0.959424
0.964202
0.967098
0.973137
0.971637
0.957227
0.95812
0.959939
0.967299
0.964876
0.969593
0.970652
1.00903
1.00492
1.01061
1.01878
1.02031
1.01749
1.00623
0.999956
0.996915
0.996032
1.00246
1.00065
0.991004
1.00472
1.00987
1.00305
1.00316
1.01162
0.995291
1.005
1.00884
1.00861
1.00343
0.999499
0.999185
1.00291
0.993297
1.01922
1.01253
1.02242
1.0025
0.998552
0.998512
1.0026
1.00226
0.985892
0.989005
0.993542
0.9869
0.985565
0.990629
0.998314
0.994894
0.983297
0.940768
0.936365
0.937666
0.939693
0.933388
0.935597
0.936999
0.936418
0.943024
0.947613
0.94873
0.946844
0.930815
0.929932
0.925244
0.923733
0.921843
0.921783
0.921839
0.919925
0.9218
0.9297
0.924355
0.927315
0.935844
0.939719
0.934727
0.930761
0.931831
0.926747
0.928143
0.9334
0.928847
0.932249
0.943563
0.930826
0.931862
0.937315
0.949269
0.948168
0.941017
0.941106
0.943366
0.941168
0.942828
0.938392
0.948117
0.94885
0.950851
0.954752
0.936152
0.933952
0.9294
0.924592
0.927312
0.92271
0.942053
0.944282
0.943166
0.937245
0.938931
0.940047
0.945064
0.946137
0.947979
0.949474
0.92243
0.92104
0.921145
0.919452
0.918046
0.92005
0.915652
0.917841
0.918742
0.919198
0.920823
0.921206
0.93581
0.931783
0.938058
0.917664
0.922384
0.919135
0.929373
0.920511
0.918314
0.923399
0.925709
0.916612
0.919201
0.924183
0.936079
0.942426
0.941853
0.934597
0.949002
0.947841
0.951339
0.95205
0.956649
0.957182
0.950503
0.957662
0.962381
0.925557
0.918264
0.919941
0.924253
0.928398
0.951281
0.95586
0.949108
0.951304
0.956613
0.955592
0.958253
0.953013
0.954342
0.953191
0.952805
0.951266
0.957684
0.959951
0.959304
0.967331
0.973131
0.974542
0.984326
0.996967
0.984659
0.986352
0.989544
0.978978
0.967794
0.9679
0.975409
0.968379
0.964144
0.958899
0.959852
0.960925
0.958947
0.945574
0.948644
0.955113
0.95558
0.955482
0.958242
0.990775
0.971124
0.970732
0.998521
0.991037
0.994054
0.963005
0.971088
0.981158
0.984463
0.980899
0.952879
0.935347
0.938784
0.942677
0.939014
0.943011
0.939048
0.944905
0.961226
0.96759
0.989201
0.992912
0.990467
0.995336
1.00199
0.996638
0.99829
1.02039
1.02181
1.0189
1.01254
1.0183
1.03257
1.0088
1.0265
1.00285
1.00823
1.01304
1.0096
0.920159
0.920284
0.948603
0.955448
0.95756
0.948745
0.951975
0.95208
0.971654
0.967635
0.972961
0.973627
0.983491
0.978185
0.981498
0.988696
0.962402
0.955781
0.961357
0.954181
0.964364
0.969635
0.96729
0.973873
0.976215
0.980454
0.993011
0.988932
0.996148
0.991341
0.991885
0.993971
0.998599
0.921504
0.920111
0.924165
0.919873
0.92094
0.918854
0.918491
0.920957
0.919856
0.916847
0.917896
0.918207
0.919471
0.917201
0.918033
0.919192
0.91685
0.915833
0.917193
0.917439
0.914453
0.912778
0.91727
0.919196
0.920115
0.922723
0.914067
0.916
0.915437
0.919958
0.915137
0.916208
0.916412
0.920416
0.918889
0.918286
0.973227
0.976879
0.98356
0.971859
0.976462
0.973964
0.978705
0.98524
0.987842
0.97633
0.983229
0.97968
0.970707
0.957587
0.962735
0.961215
0.961304
0.967638
0.96717
0.961728
0.957655
0.962573
0.966616
0.969348
0.97215
0.977928
0.972684
0.962328
0.967188
0.972245
0.970662
1.02262
1.00939
1.02566
1.01044
1.01977
1.03019
1.03344
1.02134
1.01946
1.00547
1.00224
0.996354
1.00432
0.999924
0.986621
0.994268
1.00319
1.00695
1.0093
1.02124
0.997644
1.023
1.02633
0.993081
1.01023
1.01905
1.02366
1.00972
1.00132
1.00198
1.00965
1.02877
1.01705
1.03371
1.0079
1.00028
0.996694
1.00555
1.00121
1.0075
0.989266
0.991979
0.991751
0.990053
0.986281
0.989245
0.996069
0.996164
0.93808
0.93134
0.933383
0.934462
0.936073
0.937421
0.936992
0.942751
0.947157
0.946675
0.930003
0.929989
0.926879
0.923299
0.920696
0.920337
0.920992
0.919133
0.920241
0.929921
0.924607
0.924829
0.926504
0.933344
0.936039
0.937044
0.932867
0.929696
0.930054
0.923898
0.925887
0.928827
0.924486
0.924049
0.935105
0.944487
0.939854
0.931375
0.930615
0.935811
0.947928
0.948614
0.945208
0.940884
0.940719
0.942699
0.942132
0.93838
0.938183
0.938392
0.949143
0.94402
0.949032
0.945808
0.951205
0.949883
0.936973
0.933652
0.928915
0.923003
0.925761
0.926232
0.923908
0.923837
0.941786
0.946519
0.937961
0.941087
0.937727
0.944218
0.945586
0.947234
0.947653
0.949256
0.946564
0.951069
0.918553
0.92003
0.916754
0.917139
0.9183
0.918057
0.916613
0.915431
0.913864
0.916866
0.915371
0.917896
0.918731
0.915951
0.918873
0.919243
0.933878
0.935463
0.918073
0.915661
0.919648
0.91987
0.916102
0.928132
0.913679
0.923118
0.91787
0.924017
0.920753
0.917639
0.918564
0.91894
0.920429
0.937792
0.934639
0.928458
0.944386
0.944163
0.926696
0.940006
0.949331
0.959394
0.961542
0.958049
0.949623
0.950308
0.956981
0.955182
0.954939
0.954612
0.955176
0.963021
0.974647
0.924144
0.915665
0.91768
0.920873
0.925278
0.92452
0.95349
0.948208
0.951395
0.954574
0.954601
0.956995
0.952562
0.955789
0.952757
0.952714
0.949866
0.94984
0.958235
0.962015
0.957755
0.956457
0.966197
0.969074
0.973248
0.976298
0.98834
0.98986
0.992239
0.997018
0.984556
0.985073
0.991007
0.987155
0.979548
0.968864
0.972974
0.961401
0.972149
0.976272
0.962207
0.963988
0.965977
0.956958
0.956455
0.955249
0.955034
0.944145
0.946471
0.952317
0.950445
0.951642
0.955363
0.971611
0.978132
1.00325
0.994683
1.00107
0.994573
0.961416
0.975076
0.984834
0.983658
0.982322
0.955348
0.936365
0.934962
0.939129
0.941955
0.940338
0.935894
0.939916
0.94274
0.935273
0.938059
0.943223
0.959848
0.990081
0.994362
0.993678
0.996236
1.00251
0.995846
0.999223
1.03019
1.02566
1.01935
1.01429
1.01389
1.02309
1.01655
1.0386
1.01232
1.035
1.02614
1.00941
1.01121
1.01464
1.01102
0.955016
0.951353
0.950979
0.965624
0.975124
0.976476
0.986524
0.988838
0.978831
0.989824
0.99132
0.95693
0.961001
0.962953
0.954116
0.970278
0.968784
0.970233
0.977593
0.982308
0.984708
0.996098
0.998111
0.997073
0.99931
1.00231
0.919107
0.922982
0.921398
0.919037
0.916145
0.921046
0.918226
0.917049
0.918551
0.916803
0.915876
0.914798
0.913787
0.913007
0.916246
0.914277
0.9173
0.916521
0.913106
0.912296
0.9139
0.914467
0.916337
0.914693
0.91862
0.918403
0.92204
0.915271
0.91398
0.916134
0.912931
0.917754
0.915455
0.913672
0.913157
0.915663
0.975919
0.977153
0.981088
0.970485
0.973083
0.975512
0.971954
0.982173
0.987439
0.982037
0.9593
0.962117
0.959075
0.969081
0.966789
0.965817
0.968973
0.961555
0.963899
0.956347
0.960299
0.961028
0.965286
0.967345
0.968826
0.974238
0.970887
0.976848
0.980744
0.968909
0.971019
1.01575
1.02847
1.02308
1.00755
1.02739
1.02152
1.02754
1.02177
1.04024
1.03988
1.03593
1.02317
1.02564
1.01208
0.999508
1.00128
1.00708
1.00271
0.999698
0.985793
0.991349
0.992679
1.00573
1.00727
1.01944
1.02122
1.03056
1.00919
1.02131
1.02756
1.03217
1.00886
1.01058
1.01201
1.01689
1.02414
1.02728
1.01818
1.00809
0.999572
1.00603
1.01609
1.03008
1.03825
1.00617
1.00873
1.00319
1.01528
0.994809
0.988557
0.992927
0.988553
0.999619
0.996072
0.930659
0.932188
0.934679
0.936147
0.938509
0.945308
0.94503
0.926525
0.9207
0.91864
0.919905
0.918912
0.919595
0.917663
0.926939
0.923454
0.921027
0.925806
0.933487
0.93699
0.936801
0.929092
0.927088
0.926362
0.931268
0.922075
0.924408
0.92865
0.920604
0.922544
0.92606
0.932121
0.940533
0.930802
0.931781
0.935798
0.948017
0.947677
0.944569
0.943432
0.938312
0.942428
0.939525
0.93811
0.936681
0.938025
0.937927
0.948796
0.944157
0.944586
0.940354
0.948753
0.945175
0.950652
0.951276
0.931864
0.926395
0.922539
0.928589
0.925005
0.927344
0.924303
0.927056
0.923347
0.920556
0.946717
0.938179
0.93783
0.937411
0.94445
0.947007
0.950819
0.950258
0.948088
0.950893
0.947812
0.951956
0.916264
0.917371
0.914664
0.916015
0.918328
0.917399
0.916971
0.915218
0.914203
0.916169
0.914856
0.914699
0.911509
0.9143
0.91516
0.916168
0.916489
0.917738
0.914576
0.914723
0.917637
0.918186
0.932735
0.935832
0.914424
0.913979
0.915272
0.915712
0.919726
0.919668
0.929078
0.915207
0.91557
0.92051
0.923397
0.915836
0.920581
0.92074
0.915716
0.916463
0.917322
0.919219
0.919277
0.918437
0.952171
0.940416
0.936321
0.93341
0.943965
0.942377
0.936981
0.935442
0.935072
0.95299
0.95946
0.96504
0.962097
0.96987
0.95322
0.952799
0.953889
0.958394
0.959897
0.953945
0.95645
0.954961
0.954154
0.95435
0.958517
0.961534
0.96313
0.920977
0.917263
0.908929
0.915152
0.917478
0.923927
0.921417
0.927159
0.91986
0.91979
0.922406
0.949954
0.953205
0.957154
0.954153
0.954192
0.951399
0.951302
0.949172
0.949535
0.959512
0.954928
0.962227
0.956701
0.953888
0.952976
0.966212
0.970782
0.971081
0.987963
0.996243
0.989229
0.99479
1.0145
0.982303
0.983075
0.989312
0.990494
0.986794
0.977508
0.974759
0.977883
0.970927
0.964657
0.961503
0.960001
0.979362
0.972515
0.977329
0.990819
0.956925
0.967503
0.957508
0.96194
0.96316
0.955639
0.953407
0.952256
0.954796
0.954625
0.951371
0.939597
0.944879
0.946675
0.94936
0.950654
0.969274
0.961288
0.976077
1.00304
1.00505
1.00904
1.00133
0.994339
0.997712
0.972604
0.984924
0.996253
0.985718
0.983578
0.949029
0.934111
0.929211
0.938769
0.939344
0.93612
0.93456
0.94428
0.939712
0.940055
0.933569
0.935402
0.954017
0.935198
0.963698
0.995136
1.00489
1.00255
1.0024
0.999391
1.00621
1.03006
1.03148
1.02859
1.02724
1.01207
1.01785
1.02768
1.02293
1.05151
1.01217
1.04347
1.04015
1.0252
1.00737
1.0189
1.01202
0.952352
0.954357
0.967789
0.985005
0.976138
0.987377
0.987936
0.989385
0.984478
0.990192
0.99111
0.956434
0.962724
0.971868
0.972894
0.966333
0.971291
0.980773
0.974208
0.98359
0.983584
1.00096
1.00071
1.00003
1.00303
0.916895
0.922148
0.91935
0.914523
0.916832
0.914395
0.916569
0.911607
0.912241
0.911926
0.913042
0.915691
0.913342
0.915998
0.911868
0.912466
0.910826
0.914067
0.913176
0.913113
0.919535
0.918833
0.91886
0.914771
0.913779
0.912705
0.912071
0.91434
0.912073
0.914278
0.909865
0.910136
0.912132
0.979309
0.975865
0.975507
0.979172
0.981915
0.981849
0.970926
0.978915
0.985491
0.985456
0.963853
0.958965
0.967266
0.967418
0.96077
0.962069
0.95534
0.95943
0.960823
0.963823
0.966707
0.967978
0.970023
0.973488
0.972804
0.971697
0.978887
0.973064
1.01705
1.02199
1.03243
1.03783
1.02018
1.03031
1.0094
1.03538
1.0217
1.03029
1.03943
1.05544
1.0551
1.05362
1.01768
1.03833
1.0398
1.00907
1.00289
0.998121
1.00415
0.997336
1.00708
1.00691
0.995984
0.994897
1.00593
0.990458
0.989286
1.00538
1.01326
1.00701
1.02369
1.0193
1.03019
1.03528
1.01212
1.02018
1.02197
1.03074
1.04688
1.00695
1.01307
1.01876
1.01784
1.01087
1.01966
1.01758
1.0365
1.02153
1.03833
1.01875
1.00688
1.01008
1.01565
1.00606
1.0033
1.03912
1.04562
1.05111
1.00857
1.01346
1.00601
0.992413
0.990292
1.00051
0.998322
0.932729
0.944346
0.925058
0.919126
0.922879
0.918741
0.926324
0.926283
0.925141
0.919694
0.920117
0.921039
0.932083
0.934168
0.932913
0.930966
0.924651
0.926189
0.930489
0.930659
0.92003
0.920356
0.926124
0.919909
0.91858
0.921425
0.923412
0.928228
0.928391
0.93087
0.930311
0.934613
0.937145
0.946023
0.94638
0.942913
0.938185
0.939598
0.937994
0.937483
0.93612
0.936299
0.935915
0.939799
0.949953
0.942707
0.943656
0.944687
0.939715
0.949509
0.94748
0.944152
0.94407
0.949766
0.932596
0.921232
0.924594
0.922805
0.92722
0.921164
0.924574
0.928226
0.919531
0.924299
0.937405
0.940756
0.943179
0.937591
0.94361
0.945373
0.948398
0.952102
0.945595
0.947054
0.954747
0.913432
0.914946
0.914127
0.914162
0.914117
0.913697
0.912704
0.914211
0.913172
0.913809
0.911858
0.911375
0.91221
0.914357
0.913873
0.913802
0.916104
0.913919
0.912887
0.913348
0.916045
0.915867
0.919285
0.933213
0.93853
0.910815
0.909759
0.912708
0.914109
0.913939
0.915346
0.918574
0.917317
0.927006
0.931204
0.913675
0.91492
0.914762
0.915247
0.915884
0.922336
0.914962
0.915303
0.923705
0.916265
0.915523
0.91414
0.914944
0.914787
0.917093
0.917647
0.918359
0.916512
0.916848
0.945123
0.943998
0.93644
0.932827
0.937649
0.932715
0.930031
0.940335
0.945339
0.942515
0.940116
0.955165
0.93294
0.933455
0.934192
0.968348
0.958576
0.964814
0.964478
0.96983
0.964494
0.968005
0.969799
0.955762
0.95071
0.949411
0.955734
0.962465
0.957885
0.963162
0.957473
0.960802
0.96345
0.962198
0.960996
0.955649