/*--------------------------------*- C++ -*----------------------------------*\
| =========                 |                                                 |
| \\      /  F ield         | OpenFOAM: The Open Source CFD Toolbox           |
|  \\    /   O peration     | Version:  v2006                                 |
|   \\  /    A nd           | Website:  www.openfoam.com                      |
|    \\/     M anipulation  |                                                 |
\*---------------------------------------------------------------------------*/
FoamFile
{
    version     2.0;
    format      ascii;
    class       volScalarField;
    location    "14.8";
    object      rho;
}
// * * * * * * * * * * * * * * * * * * * * * * * * * * * * * * * * * * * * * //

dimensions      [1 -3 0 0 0 0 0];


internalField   nonuniform List<scalar> 
341797
(
0.958843
0.959075
0.960542
0.956807
0.95985
0.95978
0.960649
0.962665
0.95667
0.957045
0.960537
0.959886
0.961857
0.960379
0.962172
0.964269
0.958254
0.95667
0.955995
0.956889
0.960124
0.962466
0.960175
0.965243
0.96169
0.96145
0.961876
0.96295
0.96467
0.958586
0.955266
0.955895
0.955705
0.957686
0.961698
0.959882
0.965119
0.960193
0.965113
0.961404
0.964966
0.961601
0.962752
0.963188
0.967692
0.957135
0.957284
0.954759
0.953461
0.957239
0.953734
0.95559
0.957087
0.962771
0.957783
0.960686
0.965907
0.960897
0.963741
0.967388
0.966273
0.962209
0.95837
0.964532
0.961213
0.962129
0.962793
0.963192
0.966555
0.968027
0.968544
0.956647
0.957195
0.958957
0.9544
0.952552
0.952175
0.95666
0.953083
0.955674
0.965223
0.962558
0.956829
0.957196
0.958767
0.967786
0.960419
0.965249
0.96419
0.968641
0.967821
0.960592
0.962353
0.957925
0.966213
0.962224
0.963477
0.9646
0.965503
0.967724
0.969637
0.969896
0.956547
0.956443
0.95837
0.959447
0.952179
0.951597
0.953495
0.951188
0.952579
0.957056
0.952073
0.953642
0.966182
0.964432
0.960719
0.955678
0.956019
0.958413
0.968588
0.96195
0.962632
0.966471
0.964771
0.969602
0.968848
0.968999
0.961879
0.958668
0.964175
0.959752
0.957445
0.967303
0.962807
0.963818
0.964896
0.966512
0.965501
0.966609
0.970391
0.9689
0.972431
0.972298
0.956815
0.956407
0.959004
0.959252
0.95239
0.950899
0.950951
0.954346
0.949888
0.951954
0.957549
0.953619
0.966387
0.964598
0.959011
0.958584
0.956256
0.954029
0.970775
0.962056
0.964059
0.964069
0.968018
0.96811
0.96717
0.965618
0.971767
0.970177
0.969923
0.961306
0.957998
0.964445
0.960948
0.957531
0.966653
0.962241
0.96366
0.964156
0.966068
0.966861
0.966967
0.9716
0.971297
0.968005
0.973369
0.973599
0.973625
0.953638
0.956321
0.957449
0.958901
0.961107
0.951223
0.951272
0.94915
0.953099
0.94967
0.950144
0.952667
0.954497
0.953488
0.965725
0.969068
0.963406
0.964518
0.955795
0.959326
0.956307
0.955264
0.953775
0.961714
0.963717
0.966365
0.963331
0.969107
0.966526
0.968444
0.964192
0.97147
0.972272
0.971012
0.969364
0.971872
0.960433
0.960216
0.958615
0.958953
0.954779
0.965007
0.967083
0.96396
0.964877
0.965924
0.967586
0.967079
0.968452
0.970191
0.973175
0.973149
0.969928
0.97469
0.975325
0.973182
0.974774
0.954037
0.952518
0.957384
0.958123
0.959858
0.961139
0.950116
0.950565
0.948339
0.948739
0.952057
0.952881
0.948055
0.949808
0.950084
0.953892
0.952701
0.95375
0.964295
0.967841
0.969746
0.961779
0.960616
0.967518
0.954424
0.955842
0.958889
0.955574
0.953844
0.963177
0.965377
0.962472
0.967368
0.962808
0.969922
0.967509
0.968263
0.964331
0.973263
0.972937
0.971944
0.971219
0.973973
0.971713
0.959269
0.957719
0.956873
0.955598
0.956186
0.953598
0.964711
0.966841
0.964404
0.965512
0.96626
0.967665
0.968302
0.969482
0.97118
0.97615
0.971648
0.972612
0.969036
0.977379
0.975971
0.980008
0.976385
0.975144
0.977277
0.953863
0.952518
0.957416
0.958139
0.960562
0.960872
0.949847
0.949388
0.94839
0.947654
0.94788
0.951147
0.952851
0.946859
0.948954
0.95116
0.94891
0.952781
0.9517
0.964322
0.967864
0.969788
0.97112
0.96163
0.960141
0.961425
0.966222
0.954728
0.957814
0.954692
0.953556
0.963656
0.965146
0.962676
0.968019
0.967628
0.968899
0.962995
0.974612
0.971809
0.97292
0.97463
0.970904
0.9719
0.959528
0.955451
0.955733
0.962249
0.95718
0.956693
0.953365
0.957357
0.953091
0.965934
0.967212
0.968841
0.968676
0.963957
0.965541
0.966167
0.967757
0.968216
0.971148
0.969613
0.971301
0.97595
0.972182
0.974326
0.977686
0.979404
0.981257
0.98204
0.980153
0.978618
0.978749
0.955389
0.953433
0.951265
0.957787
0.959809
0.960234
0.961814
0.950076
0.94894
0.948647
0.947955
0.945516
0.948081
0.951764
0.946116
0.947364
0.948713
0.95029
0.95064
0.952737
0.953702
0.963309
0.967996
0.96889
0.972818
0.960219
0.961858
0.961847
0.968439
0.951434
0.956274
0.952172
0.951236
0.963527
0.965633
0.961778
0.967864
0.969137
0.970319
0.962723
0.972559
0.97634
0.973632
0.976015
0.980688
0.972209
0.972149
0.972387
0.961256
0.957013
0.953706
0.957772
0.962273
0.961175
0.954028
0.957611
0.95536
0.950186
0.952637
0.952024
0.963882
0.967264
0.972141
0.964747
0.965861
0.966885
0.968142
0.968904
0.970161
0.972886
0.971856
0.973563
0.979291
0.975466
0.975108
0.980248
0.980842
0.982839
0.981619
0.983459
0.981209
0.980366
0.979128
0.955571
0.95189
0.950571
0.958977
0.959723
0.960937
0.962283
0.948669
0.949377
0.947223
0.948534
0.944934
0.945279
0.947928
0.947189
0.951075
0.944688
0.945816
0.946554
0.951657
0.948547
0.952235
0.965577
0.969512
0.97043
0.973746
0.960425
0.960967
0.959978
0.96504
0.97051
0.950997
0.954938
0.949931
0.95267
0.949742
0.949017
0.964892
0.963915
0.967007
0.970363
0.968672
0.971749
0.961984
0.975079
0.979398
0.976246
0.979954
0.980347
0.976171
0.970153
0.975847
0.974853
0.960425
0.954378
0.959223
0.953912
0.953237
0.959718
0.960575
0.954506
0.958929
0.958004
0.953891
0.952568
0.95484
0.95178
0.961898
0.964584
0.9677
0.969917
0.965131
0.966421
0.967394
0.968718
0.96959
0.970495
0.972385
0.974994
0.973738
0.976274
0.97965
0.981377
0.983745
0.983414
0.980127
0.983317
0.985489
0.983626
0.98195
0.981175
0.979182
0.980426
0.955278
0.951097
0.950917
0.959128
0.959729
0.961473
0.961854
0.947025
0.948006
0.949023
0.946314
0.944277
0.944881
0.944641
0.948137
0.947031
0.944066
0.945567
0.945426
0.947103
0.94967
0.965897
0.9706
0.970543
0.976668
0.9603
0.961706
0.962548
0.966369
0.972608
0.949329
0.948629
0.95009
0.953188
0.947845
0.949617
0.948464
0.965148
0.963359
0.968303
0.970178
0.969103
0.973062
0.962069
0.979767
0.979663
0.978223
0.97938
0.983806
0.981594
0.982196
0.976024
0.970963
0.974219
0.978758
0.971637
0.97681
0.952296
0.953977
0.957439
0.959604
0.952872
0.952142
0.952881
0.961531
0.958556
0.962908
0.952919
0.95533
0.956728
0.956503
0.953049
0.954183
0.953283
0.950874
0.953752
0.948935
0.951882
0.962402
0.963669
0.965927
0.96806
0.974676
0.963305
0.965647
0.967325
0.968553
0.970039
0.973155
0.97375
0.976842
0.976307
0.981834
0.983481
0.985647
0.985792
0.98061
0.98306
0.986561
0.987322
0.984888
0.986096
0.985269
0.981314
0.979494
0.957345
0.949955
0.959309
0.960069
0.961128
0.963891
0.946044
0.947731
0.947555
0.945234
0.944764
0.945109
0.943543
0.947453
0.947498
0.946336
0.947675
0.944519
0.944347
0.94647
0.947317
0.946945
0.949622
0.965513
0.970125
0.972392
0.979023
0.976946
0.957986
0.961719
0.962711
0.958287
0.966435
0.967473
0.972541
0.949384
0.9496
0.950947
0.946479
0.947891
0.94545
0.94802
0.964646
0.966231
0.966545
0.971961
0.970884
0.978149
0.972276
0.959244
0.980893
0.97998
0.981254
0.979489
0.984292
0.980459
0.985661
0.98169
0.97451
0.977405
0.97273
0.971802
0.976495
0.97434
0.952293
0.952957
0.952375
0.956838
0.958394
0.951819
0.949244
0.952449
0.954326
0.960938
0.958167
0.954221
0.960698
0.953339
0.956728
0.954051
0.951883
0.955605
0.952792
0.948784
0.953403
0.947771
0.945038
0.948209
0.954701
0.960738
0.962298
0.964692
0.969472
0.972515
0.970342
0.964561
0.965966
0.967806
0.968546
0.970541
0.972394
0.975567
0.976301
0.97698
0.977328
0.976304
0.98502
0.97999
0.986313
0.988362
0.987462
0.986737
0.983454
0.983877
0.984302
0.990418
0.989897
0.98836
0.987682
0.987685
0.986681
0.986155
0.980308
0.957725
0.949623
0.960469
0.961781
0.963686
0.944403
0.944864
0.946002
0.94727
0.944729
0.942568
0.944204
0.942993
0.947467
0.944914
0.947603
0.942954
0.944616
0.94471
0.946237
0.947085
0.967036
0.968764
0.971245
0.972415
0.979468
0.95814
0.960636
0.961061
0.959671
0.960706
0.966645
0.97023
0.967441
0.973446
0.978649
0.947075
0.946942
0.951282
0.945946
0.945226
0.947691
0.941734
0.945511
0.94492
0.966603
0.964583
0.968863
0.972473
0.97007
0.976243
0.978038
0.97025
0.969348
0.959644
0.980116
0.989424
0.980458
0.982455
0.980649
0.980402
0.980962
0.990946
0.984736
0.982205
0.984417
0.9895
0.979293
0.985295
0.97152
0.97624
0.978125
0.97201
0.973903
0.979144
0.974573
0.97634
0.950021
0.95266
0.955007
0.950906
0.95061
0.957056
0.959491
0.948933
0.947093
0.946675
0.950721
0.953172
0.957717
0.960653
0.954154
0.957953
0.960866
0.95304
0.95446
0.956756
0.953972
0.950617
0.954036
0.952519
0.949694
0.948235
0.954696
0.956341
0.94372
0.947378
0.943891
0.947793
0.947651
0.957625
0.951177
0.962847
0.962467
0.966402
0.968655
0.97971
0.971068
0.969683
0.971867
0.96241
0.965238
0.963572
0.968129
0.969318
0.970703
0.979178
0.977851
0.978007
0.977901
0.98567
0.982221
0.987708
0.992748
0.990392
0.992064
0.982241
0.984019
0.992459
0.993922
0.989228
0.991206
0.989311
0.988294
0.987521
0.982558
0.957226
0.948333
0.960192
0.962739
0.963624
0.943939
0.944666
0.945296
0.946469
0.944114
0.9418
0.942817
0.941697
0.946089
0.943484
0.946547
0.941147
0.943649
0.943803
0.943174
0.945634
0.945703
0.966625
0.968221
0.970199
0.974751
0.977517
0.958406
0.962289
0.960253
0.958496
0.967526
0.961755
0.969663
0.971616
0.973262
0.969735
0.972139
0.976625
0.981246
0.98046
0.981179
0.946327
0.946607
0.947616
0.945756
0.950494
0.944049
0.945089
0.943189
0.943232
0.944931
0.945591
0.941955
0.942524
0.941033
0.940832
0.943663
0.966688
0.964279
0.96835
0.976603
0.969606
0.969564
0.978317
0.977436
0.97767
0.967007
0.971174
0.968054
0.970464
0.95824
0.959796
0.989479
0.991843
0.98916
0.982689
0.983723
0.984204
0.984174
0.981711
0.994074
0.985242
0.991631
0.980749
0.982497
0.988502
0.981077
0.988723
0.973226
0.976486
0.980909
0.974687
0.976566
0.975933
0.950313
0.949345
0.954075
0.955013
0.950924
0.951331
0.958924
0.955782
0.95676
0.957514
0.947319
0.945321
0.944454
0.947292
0.95232
0.9498
0.956243
0.950631
0.954379
0.96075
0.950846
0.959247
0.955775
0.960365
0.954604
0.952659
0.95326
0.949404
0.956177
0.952125
0.948156
0.946912
0.956702
0.95343
0.958821
0.942658
0.943388
0.942715
0.943137
0.945191
0.944667
0.947494
0.948209
0.94782
0.957945
0.949327
0.960356
0.962827
0.960852
0.964292
0.964039
0.968827
0.976941
0.982262
0.974861
0.967322
0.971452
0.967046
0.975125
0.956098
0.960781
0.967327
0.968928
0.970026
0.979695
0.978066
0.981316
0.981467
0.987485
0.984518
0.981713
0.990168
0.997787
0.996607
0.996757
0.982513
0.98996
0.995887
0.996975
0.996658
0.9933
0.997284
0.989649
0.994
0.98637
0.986916
0.946779
0.961414
0.962178
0.965592
0.943009
0.943596
0.94358
0.944306
0.941718
0.940891
0.945745
0.942917
0.943685
0.941066
0.941234
0.943871
0.942178
0.946352
0.943293
0.966387
0.968534
0.970306
0.981373
0.960931
0.960677
0.958947
0.966804
0.960561
0.966682
0.972214
0.97334
0.968467
0.973602
0.979696
0.974575
0.983594
0.980914
0.982782
0.984499
0.984873
0.94385
0.9442
0.947617
0.945783
0.943328
0.943846
0.942252
0.940093
0.940776
0.943848
0.944759
0.942899
0.940828
0.940927
0.940702
0.941598
0.940799
0.941757
0.96633
0.966529
0.974489
0.972514
0.969315
0.981122
0.977231
0.979562
0.97863
0.977164
0.967282
0.970717
0.965874
0.967672
0.968531
0.974793
0.958238
0.994388
0.990245
0.995008
0.991109
0.988697
0.982892
0.985235
0.98986
0.986623
0.991894
0.985631
1.00128
0.990624
0.992459
0.996759
0.990465
0.979862
0.982666
0.987314
0.9923
0.981967
0.985339
0.989603
0.975164
0.973762
0.976844
0.978003
0.980847
0.978629
0.977769
0.950647
0.949067
0.953657
0.951618
0.948381
0.950448
0.957322
0.954846
0.956436
0.959704
0.945482
0.946016
0.942283
0.943045
0.945013
0.950275
0.94834
0.948199
0.958496
0.950219
0.954899
0.961231
0.950292
0.951088
0.958884
0.955723
0.954796
0.959914
0.954753
0.952476
0.956294
0.952927
0.951384
0.947655
0.952814
0.950947
0.949132
0.947316
0.947516
0.955935
0.95257
0.956309
0.959288
0.941815
0.940989
0.942209
0.941923
0.943475
0.94133
0.942263
0.942034
0.946524
0.945008
0.950035
0.94349
0.943926
0.952924
0.960136
0.951693
0.960548
0.961548
0.960793
0.964108
0.960328
0.963431
0.962661
0.96641
0.968628
0.979148
0.980964
0.98253
0.971755
0.965739
0.967822
0.974455
0.970472
0.969144
0.983172
0.977482
0.956427
0.954135
0.958777
0.964343
0.963627
0.968497
0.970501
0.971529
0.981071
0.979866
0.983052
0.982083
0.99192
0.986434
0.986169
0.983866
0.992868
0.998794
0.998898
0.998988
0.999153
0.992951
1.00046
1.00179
1.00145
0.999812
0.996361
0.988703
0.998647
0.987604
0.946287
0.963919
0.965503
0.941972
0.942138
0.943187
0.940538
0.940954
0.940732
0.94078
0.939368
0.941322
0.940473
0.944661
0.943454
0.968448
0.960722
0.96591
0.959376
0.965012
0.959143
0.961312
0.966543
0.974239
0.972892
0.973569
0.979189
0.966677
0.970636
0.980661
0.978384
0.98952
0.985219
0.981507
0.986168
0.988246
0.993504
0.942001
0.943295
0.943517
0.946145
0.944091
0.940961
0.941343
0.940535
0.939158
0.938338
0.93908
0.939302
0.940794
0.940149
0.945038
0.942237
0.940927
0.940135
0.939309
0.939712
0.940454
0.939547
0.940246
0.966998
0.974245
0.971719
0.979678
0.976884
0.977362
0.9853
0.975328
0.980323
0.975983
0.966247
0.968285
0.967678
0.969944
0.975401
0.963813
0.96462
0.966869
0.970918
0.974389
0.974623
0.957952
0.997502
0.995401
0.993349
0.999149
0.989503
0.994172
0.990473
0.987029
0.981752
0.994762
0.996861
0.9847
0.994496
0.995667
0.987678
1.00589
0.996105
0.99744
0.98915
0.996407
0.995772
0.982575
0.984188
0.988881
0.990436
0.983239
0.987237
0.990137
0.974564
0.977842
0.980473
0.978398
0.983874
0.950887
0.949762
0.947864
0.954052
0.949839
0.950705
0.94596
0.947686
0.94971
0.955706
0.957627
0.955009
0.955093
0.959048
0.944755
0.94372
0.94638
0.942629
0.942035
0.942346
0.939961
0.946084
0.942792
0.950278
0.947964
0.948945
0.954421
0.948469
0.948731
0.953015
0.956407
0.947728
0.949728
0.950256
0.960094
0.958018
0.952577
0.954534
0.9542
0.955151
0.957748
0.964108
0.955755
0.954443
0.949345
0.951703
0.948581
0.947776
0.945228
0.955394
0.957908
0.953323
0.955402
0.958375
0.959605
0.940125
0.940858
0.93987
0.939047
0.94029
0.939866
0.940971
0.942145
0.939722
0.940259
0.940826
0.941074
0.947207
0.950818
0.942063
0.944733
0.949778
0.947016
0.938902
0.944399
0.95776
0.962015
0.962202
0.965332
0.944379
0.948315
0.958884
0.960317
0.961378
0.962483
0.957515
0.959722
0.964389
0.96253
0.962453
0.960866
0.964442
0.96597
0.97011
0.980474
0.98648
0.980119
0.976197
0.970373
0.971109
0.962725
0.964417
0.962673
0.981755
0.972718
0.971126
0.988187
0.975096
0.985261
0.959214
0.956313
0.953092
0.958513
0.965181
0.968782
0.970568
0.972069
0.982545
0.980754
0.983863
0.982846
0.994447
0.990073
0.988547
0.984656
0.998526
0.998737
1.00241
1.0038
0.998951
1.00466
1.00349
1.00191
0.997385
0.992134
1.00048
0.990975
0.964108
0.964643
0.942728
0.938633
0.939671
0.940631
0.938826
0.940438
0.963675
0.966308
0.959556
0.964992
0.961317
0.961071
0.961706
0.968262
0.973786
0.977891
0.973604
0.972165
0.977365
0.979206
0.981514
0.968207
0.966065
0.970407
0.976706
0.987044
0.993257
0.986869
0.986678
0.989542
0.99378
0.94107
0.941834
0.94175
0.945018
0.942995
0.940748
0.93922
0.938898
0.939805
0.93813
0.939598
0.936361
0.937464
0.93591
0.938675
0.936898
0.938836
0.936565
0.942259
0.94538
0.938805
0.938855
0.939195
0.938912
0.940049
0.938703
0.938234
0.967481
0.970293
0.979197
0.976365
0.979024
0.984822
0.97678
0.975146
0.977922
0.975456
0.964969
0.967715
0.970789
0.971604
0.96776
0.967536
0.972863
0.976547
0.975544
0.963095
0.965008
0.965909
0.968698
0.972961
0.972719
0.997449
1.00369
0.998506
1.00458
0.99545
0.991367
0.993437
0.995484
0.993127
0.995027
0.987915
0.995898
0.995496
1.00174
0.9912
0.998783
0.99797
0.992987
0.99731
0.986264
1.00912
0.999845
0.99614
0.999311
0.995159
0.994997
0.997885
0.982795
0.984831
0.989818
0.992254
0.98982
0.982444
0.986504
0.985821
0.993121
0.976423
0.979984
0.979312
0.98226
0.951629
0.948219
0.949557
0.945718
0.947955
0.950364
0.956203
0.952717
0.95446
0.955824
0.9564
0.943705
0.94336
0.943963
0.941691
0.942499
0.93856
0.940744
0.937786
0.938274
0.939745
0.944745
0.940327
0.942517
0.949921
0.950553
0.946502
0.944933
0.945892
0.948952
0.943987
0.949398
0.955259
0.95569
0.944931
0.948275
0.948474
0.958087
0.957055
0.952387
0.955112
0.952996
0.953835
0.953085
0.958335
0.962575
0.954638
0.949773
0.952397
0.949368
0.948468
0.948545
0.946308
0.944745
0.942489
0.955475
0.957998
0.957698
0.952702
0.954577
0.958369
0.958675
0.958937
0.938664
0.938092
0.937613
0.937133
0.937964
0.938571
0.936816
0.93937
0.938587
0.938325
0.939704
0.939598
0.948469
0.951852
0.940362
0.944625
0.950393
0.944069
0.942211
0.939163
0.941435
0.95439
0.953259
0.958441
0.963526
0.961162
0.962772
0.965153
0.966555
0.940731
0.938738
0.942953
0.958825
0.962068
0.963229
0.957913
0.958101
0.960671
0.962527
0.963849
0.961954
0.961996
0.96082
0.959437
0.963871
0.967239
0.972333
0.98326
0.985221
0.985253
0.984759
0.979037
0.972019
0.973413
0.969406
0.971744
0.967392
0.956663
0.961873
0.963926
0.962244
0.967714
0.987315
0.980066
0.991307
0.987782
0.967626
0.979573
0.984163
0.984107
0.965298
0.952799
0.954113
0.953755
0.950177
0.953251
0.95252
0.965058
0.968347
0.971397
0.98598
0.983865
0.987799
0.994341
0.98654
0.988148
0.990279
1.00192
1.00608
1.00821
1.00641
0.999695
1.00247
1.00643
1.01107
1.01075
0.997094
0.999041
0.99342
1.00358
1.00066
0.96565
0.936344
0.939189
0.938502
0.96373
0.961294
0.964314
0.965825
0.961191
0.963226
0.976869
0.9787
0.976638
0.972869
0.977406
0.977785
0.980257
0.979754
0.986814
0.967496
0.968515
0.962559
0.968596
0.975282
0.977466
0.983867
0.992184
0.984522
0.990384
0.989242
0.992292
0.995466
0.939066
0.939555
0.945481
0.940475
0.939668
0.935746
0.935958
0.937126
0.93714
0.938253
0.938989
0.935491
0.935991
0.935397
0.935261
0.934389
0.933865
0.937568
0.931328
0.93682
0.939321
0.940334
0.935165
0.938456
0.936337
0.936767
0.936846
0.937812
0.93628
0.935899
0.976186
0.983336
0.975925
0.975486
0.982684
0.988054
0.975619
0.974045
0.979926
0.974169
0.963966
0.966823
0.967189
0.969577
0.972246
0.968399
0.965369
0.969219
0.970883
0.975694
0.974835
0.963084
0.963706
0.965033
0.970821
0.969077
0.972591
0.973392
1.00322
0.999759
1.00424
1.00999
1.01032
1.00964
1.00099
0.996147
0.99371
0.993633
0.998132
0.996855
0.989198
0.999716
1.00345
0.998747
0.998637
1.00549
0.9929
1.00178
1.00355
1.00231
1.00009
0.997198
0.996541
0.999403
0.992287
1.0114
1.00596
1.0135
0.999743
0.996872
0.996859
0.999952
0.999535
0.984334
0.986602
0.991134
0.985227
0.9844
0.989286
0.994772
0.992433
0.98246
0.95081
0.94754
0.948649
0.95025
0.945627
0.947218
0.948379
0.948535
0.952509
0.955975
0.956632
0.956049
0.943895
0.943453
0.939421
0.938564
0.93718
0.937645
0.937383
0.936073
0.938639
0.943771
0.939835
0.941821
0.948242
0.95156
0.948231
0.944979
0.945325
0.94257
0.943011
0.94742
0.944144
0.946628
0.953949
0.943983
0.945223
0.949261
0.957847
0.95698
0.951012
0.951982
0.953455
0.951718
0.952963
0.949579
0.956785
0.957402
0.959177
0.962136
0.9521
0.9502
0.946922
0.94278
0.944746
0.941387
0.955861
0.957301
0.956615
0.952768
0.953657
0.954198
0.95849
0.959013
0.960555
0.962404
0.937734
0.936811
0.937011
0.936162
0.935716
0.936593
0.933893
0.936268
0.937503
0.937341
0.93807
0.938373
0.951472
0.948419
0.953035
0.936518
0.940964
0.937994
0.945795
0.940177
0.937115
0.941646
0.942852
0.934939
0.936717
0.941072
0.951589
0.956204
0.954107
0.949466
0.960278
0.959527
0.96121
0.96423
0.966854
0.967092
0.961471
0.966954
0.970389
0.942174
0.93574
0.937928
0.941331
0.94367
0.958502
0.961999
0.957131
0.958723
0.962844
0.96209
0.96461
0.960051
0.961666
0.960393
0.960375
0.958894
0.963999
0.965214
0.965672
0.970826
0.976194
0.977515
0.985152
0.994649
0.984876
0.985931
0.988554
0.980582
0.972129
0.973134
0.978676
0.973492
0.969116
0.965253
0.966815
0.967538
0.966243
0.955312
0.957873
0.963029
0.96368
0.963651
0.965799
0.990497
0.97558
0.975729
0.996959
0.99141
0.993323
0.970256
0.976672
0.983412
0.986862
0.984172
0.962252
0.948696
0.951252
0.9544
0.951482
0.954445
0.950818
0.957708
0.969842
0.970812
0.986605
0.989406
0.986995
0.991493
0.996703
0.992329
0.993508
1.01129
1.01272
1.01022
1.00695
1.0111
1.02034
1.00254
1.01568
0.998176
1.00165
1.00635
1.00241
0.935711
0.936264
0.960762
0.965301
0.967263
0.960739
0.963247
0.963354
0.976954
0.973978
0.97781
0.977884
0.985306
0.981343
0.984058
0.989184
0.970631
0.96589
0.969636
0.964873
0.971476
0.975211
0.973559
0.978457
0.979647
0.982474
0.99244
0.989628
0.99427
0.991385
0.991571
0.993168
0.996676
0.937568
0.937961
0.942388
0.938898
0.939341
0.934877
0.935231
0.937203
0.936754
0.933918
0.934638
0.93404
0.936577
0.934534
0.934233
0.935414
0.933277
0.933737
0.936011
0.936044
0.931728
0.930371
0.936135
0.938102
0.938966
0.941232
0.933324
0.934889
0.934246
0.937763
0.932863
0.935022
0.933541
0.936643
0.935301
0.93493
0.975347
0.978474
0.983689
0.974938
0.977647
0.975784
0.979335
0.985237
0.987052
0.977284
0.982634
0.980004
0.973383
0.963527
0.967635
0.966443
0.966664
0.971524
0.971136
0.966767
0.963833
0.967595
0.970961
0.972735
0.974956
0.979418
0.975722
0.966942
0.970832
0.974794
0.97361
1.0134
1.00254
1.01505
1.00358
1.01071
1.01883
1.02046
1.01183
1.01082
1.00011
0.997975
0.993593
0.999678
0.996108
0.986306
0.991738
0.998435
1.00141
1.00339
1.01233
0.994173
1.0132
1.01678
0.990949
1.00552
1.01092
1.01423
1.00482
0.998515
0.99886
1.0044
1.01847
1.0092
1.0223
1.00334
0.997899
0.995236
1.00216
0.998697
1.00328
0.986685
0.988938
0.988829
0.987717
0.984917
0.987158
0.992041
0.992381
0.948915
0.944388
0.945572
0.946231
0.947964
0.948498
0.948819
0.95244
0.955809
0.955601
0.943327
0.943514
0.941172
0.938641
0.936866
0.936174
0.936657
0.935134
0.937258
0.94399
0.939746
0.940559
0.941698
0.946435
0.948123
0.94859
0.94623
0.943837
0.94391
0.939629
0.941035
0.943874
0.940407
0.9398
0.948866
0.954275
0.950888
0.944482
0.944266
0.947704
0.956402
0.957344
0.954424
0.951219
0.951232
0.952579
0.952114
0.949729
0.949367
0.949568
0.957638
0.953214
0.957392
0.954685
0.95921
0.958139
0.952407
0.950667
0.947003
0.942115
0.943467
0.944165
0.942546
0.941471
0.955655
0.959259
0.953377
0.955124
0.952469
0.957553
0.958467
0.959302
0.96009
0.961826
0.960003
0.963053
0.934615
0.936354
0.933816
0.934652
0.93437
0.935932
0.934133
0.93409
0.933003
0.935924
0.934242
0.936493
0.936605
0.934777
0.936178
0.936593
0.949819
0.950861
0.936995
0.935453
0.939347
0.938247
0.936439
0.944017
0.933766
0.941584
0.935912
0.941524
0.938922
0.936008
0.936447
0.936454
0.937311
0.952709
0.949752
0.944505
0.957069
0.95662
0.945337
0.954071
0.961564
0.970176
0.970066
0.966354
0.961025
0.962258
0.96593
0.965068
0.964243
0.96543
0.965174
0.970909
0.97939
0.941598
0.933491
0.935648
0.939113
0.941345
0.940102
0.96013
0.956489
0.958919
0.96119
0.961389
0.963172
0.959716
0.96242
0.959988
0.959966
0.958215
0.957871
0.964052
0.966833
0.963685
0.962995
0.970032
0.972089
0.975633
0.978151
0.988284
0.989293
0.990381
0.99445
0.984659
0.984715
0.989587
0.98636
0.980567
0.973227
0.975867
0.967928
0.976451
0.978634
0.968675
0.968892
0.970993
0.963694
0.964032
0.963406
0.96343
0.954716
0.956552
0.960828
0.959379
0.960873
0.963882
0.976894
0.980886
0.999923
0.993908
0.998376
0.993483
0.968936
0.978876
0.985784
0.984877
0.984684
0.964283
0.949924
0.949005
0.95118
0.954471
0.952144
0.949115
0.951501
0.95397
0.947909
0.949735
0.956273
0.968392
0.986886
0.990039
0.989177
0.991683
0.9966
0.991439
0.993945
1.01913
1.01539
1.01073
1.00822
1.0077
1.01429
1.00884
1.02416
1.0048
1.02179
1.01475
1.00324
1.00343
1.00642
1.00329
0.965282
0.96322
0.962662
0.972839
0.979115
0.979979
0.987227
0.989739
0.981688
0.990242
0.99127
0.966762
0.969612
0.970733
0.964383
0.975928
0.975112
0.974957
0.981463
0.984324
0.986075
0.994382
0.996487
0.995451
0.997266
0.999654
0.937427
0.94176
0.940097
0.937396
0.933314
0.937586
0.934835
0.933385
0.935416
0.934451
0.93319
0.931676
0.930827
0.93043
0.93358
0.933464
0.935882
0.935291
0.930476
0.929914
0.931488
0.933706
0.935364
0.934751
0.937417
0.937148
0.941209
0.934473
0.933148
0.935068
0.931513
0.934986
0.93298
0.931441
0.931542
0.932681
0.977289
0.978935
0.981417
0.973756
0.975822
0.976787
0.974215
0.981852
0.985866
0.981651
0.964878
0.967003
0.964705
0.97265
0.970661
0.969883
0.972643
0.966449
0.968407
0.962483
0.965787
0.965958
0.969657
0.971268
0.972018
0.976406
0.974176
0.978388
0.981736
0.972081
0.973662
1.00759
1.01729
1.01275
1.00179
1.01579
1.01167
1.01607
1.01189
1.02501
1.02394
1.02247
1.01317
1.01578
1.00467
0.994779
0.997053
1.00108
0.998144
0.995106
0.98537
0.988735
0.990569
0.999591
1.00045
1.01114
1.01188
1.01991
1.00248
1.01172
1.01636
1.01864
1.00363
1.0053
1.00634
1.01034
1.01439
1.01661
1.01099
1.00318
0.996524
1.00172
1.00939
1.01915
1.0246
1.00236
1.00433
1.00023
1.00887
0.990616
0.98641
0.989826
0.986646
0.994413
0.992127
0.943747
0.944709
0.946838
0.947816
0.949278
0.954334
0.954334
0.940894
0.936335
0.934995
0.936243
0.935143
0.935511
0.933817
0.941718
0.938657
0.937703
0.940924
0.946074
0.948812
0.948296
0.943087
0.941751
0.940942
0.94445
0.938312
0.939941
0.942856
0.936789
0.939023
0.940658
0.94708
0.951261
0.94431
0.944746
0.947563
0.956458
0.956274
0.953909
0.952695
0.949433
0.952363
0.950165
0.949227
0.948552
0.94878
0.948929
0.957076
0.953614
0.953345
0.950697
0.956974
0.953979
0.958202
0.959227
0.948791
0.944796
0.942484
0.945264
0.942894
0.945197
0.942143
0.945014
0.9425
0.940128
0.959384
0.953578
0.952499
0.952864
0.958171
0.95987
0.962728
0.96237
0.960728
0.962195
0.960945
0.963089
0.933083
0.934041
0.932049
0.933465
0.934633
0.933828
0.933876
0.933728
0.93193
0.933217
0.932616
0.933242
0.93016
0.933976
0.933868
0.934897
0.935173
0.935557
0.93308
0.933838
0.934376
0.935249
0.948801
0.952006
0.933811
0.934083
0.935656
0.935691
0.937487
0.939931
0.945344
0.935034
0.935345
0.939689
0.940364
0.93432
0.938278
0.939732
0.934279
0.934469
0.935256
0.936402
0.936276
0.935859
0.963456
0.954781
0.950494
0.948841
0.957024
0.956836
0.950758
0.952216
0.950718
0.964398
0.968943
0.972882
0.970229
0.975913
0.964245
0.963287
0.964112
0.96736
0.968703
0.963666
0.96685
0.965732
0.965595
0.965006
0.967969
0.970054
0.970389
0.939573
0.935206
0.929241
0.933695
0.934897
0.941444
0.94007
0.943389
0.938233
0.936009
0.938079
0.957758
0.960165
0.963149
0.960894
0.960944
0.958883
0.958756
0.957254
0.957502
0.964911
0.961256
0.966742
0.962724
0.960466
0.96045
0.969872
0.973467
0.973334
0.987396
0.994172
0.988557
0.992122
1.00747
0.982702
0.983149
0.987966
0.988572
0.985585
0.978574
0.977525
0.979636
0.973582
0.971113
0.967561
0.967429
0.981709
0.977039
0.979969
0.989562
0.964443
0.971016
0.963615
0.967061
0.968255
0.96301
0.961544
0.960894
0.962546
0.962987
0.96033
0.95054
0.954557
0.956437
0.958711
0.959868
0.975587
0.968077
0.97843
0.999709
1.00158
1.00434
0.998792
0.992983
0.995542
0.976267
0.985722
0.994527
0.986311
0.98547
0.959969
0.94839
0.944331
0.952151
0.9522
0.948549
0.947403
0.954906
0.951614
0.952863
0.946397
0.947615
0.964225
0.949463
0.969867
0.990649
0.99793
0.995697
0.995843
0.993477
0.99898
1.01895
1.01977
1.01727
1.01611
1.00661
1.01097
1.0173
1.01365
1.03358
1.00411
1.02812
1.02525
1.01357
0.999751
1.0091
1.00339
0.963997
0.964724
0.974357
0.986353
0.979779
0.98834
0.988645
0.989608
0.985677
0.990166
0.991177
0.9665
0.971034
0.97717
0.978163
0.973066
0.976625
0.98402
0.978501
0.985638
0.985502
0.998401
0.998547
0.99774
1.00022
0.935832
0.940982
0.937907
0.932079
0.933815
0.93199
0.934599
0.929057
0.929517
0.930049
0.932927
0.934656
0.932585
0.934894
0.929769
0.930072
0.928699
0.933542
0.932838
0.933078
0.938866
0.938006
0.938159
0.934074
0.932823
0.932554
0.931648
0.932214
0.930817
0.931905
0.927678
0.928392
0.930567
0.979978
0.977388
0.977311
0.980192
0.981819
0.981589
0.973824
0.979318
0.984461
0.984178
0.968266
0.96457
0.97084
0.971209
0.965932
0.966783
0.961842
0.964844
0.965939
0.968385
0.970433
0.971256
0.972778
0.975646
0.974829
0.974421
0.980018
0.975144
1.00771
1.01202
1.01922
1.02317
1.00955
1.01815
1.00202
1.02182
1.01065
1.01771
1.02453
1.03656
1.03454
1.03632
1.01054
1.0249
1.02629
1.00158
0.997047
0.993592
0.998899
0.993598
1.00048
1.00086
0.992614
0.99132
0.999781
0.988189
0.98743
0.998828
1.00429
1.00002
1.01321
1.01126
1.01853
1.02268
1.00437
1.01107
1.01161
1.01851
1.0301
1.00185
1.0063
1.01147
1.01047
1.00474
1.01206
1.00977
1.02432
1.01222
1.02522
1.01126
1.00331
1.00457
1.00911
1.00172
0.999716
1.02563
1.03014
1.03289
1.00401
1.00775
1.00203
0.989169
0.987698
0.99473
0.993538
0.945174
0.953715
0.939899
0.935483
0.938329
0.935175
0.940835
0.941118
0.939999
0.936204
0.936857
0.937258
0.944874
0.946535
0.945366
0.944367
0.939751
0.940665
0.943558
0.943491
0.936712
0.936812
0.940554
0.936983
0.935396
0.937077
0.938673
0.942998
0.942326
0.944243
0.943651
0.9467
0.948551
0.95492
0.955264
0.9524
0.949292
0.950193
0.948759
0.948586
0.947551
0.947439
0.947255
0.950359
0.957601
0.952371
0.952861
0.953412
0.949586
0.957264
0.955911
0.953346
0.95327
0.957923
0.949738
0.940574
0.942629
0.942633
0.94524
0.94077
0.9427
0.946025
0.939034
0.942887
0.95315
0.955931
0.957215
0.953384
0.957241
0.958695
0.960885
0.963383
0.959106
0.959668
0.964883
0.931333
0.93205
0.931219
0.931486
0.9319
0.931088
0.930762
0.931735
0.931263
0.931419
0.930116
0.931579
0.93123
0.933627
0.933608
0.932429
0.933455
0.932103
0.931585
0.93284
0.93335
0.933587
0.936092
0.949495
0.953171
0.931114
0.931076
0.933458
0.933945
0.934387
0.935681
0.938111
0.936641
0.947114
0.948556
0.933933
0.93488
0.934864
0.935519
0.936155
0.943001
0.93403
0.933889
0.944953
0.937556
0.933982
0.932993
0.932823
0.932626
0.934955
0.935155
0.935836
0.934368
0.934355
0.958066
0.957707
0.950114
0.948627
0.952066
0.948907
0.947691
0.954456
0.957928
0.956091
0.954676
0.965219
0.949531
0.949346
0.949662
0.976732
0.967633
0.973685
0.969938
0.976271
0.971015
0.97361
0.976094
0.966086
0.962515
0.961641
0.96509
0.971155
0.966558
0.970629