/*--------------------------------*- C++ -*----------------------------------*\
| =========                 |                                                 |
| \\      /  F ield         | OpenFOAM: The Open Source CFD Toolbox           |
|  \\    /   O peration     | Version:  v2006                                 |
|   \\  /    A nd           | Website:  www.openfoam.com                      |
|    \\/     M anipulation  |                                                 |
\*---------------------------------------------------------------------------*/
FoamFile
{
    version     2.0;
    format      ascii;
    class       volScalarField;
    location    "14.8";
    object      rhoMean;
}
// * * * * * * * * * * * * * * * * * * * * * * * * * * * * * * * * * * * * * //

dimensions      [1 -3 0 0 0 0 0];


internalField   nonuniform List<scalar> 
341797
(
0.961792
0.962037
0.963443
0.959737
0.962764
0.962732
0.963597
0.965504
0.959586
0.959978
0.96342
0.962755
0.964731
0.963207
0.96507
0.967034
0.961194
0.959469
0.958957
0.959756
0.963005
0.965329
0.963045
0.967968
0.964553
0.964287
0.964806
0.965804
0.967465
0.96149
0.958065
0.958777
0.958633
0.960558
0.964613
0.962697
0.967889
0.96323
0.967864
0.964315
0.967683
0.964451
0.965525
0.966092
0.970458
0.960037
0.960261
0.957559
0.956269
0.96015
0.95665
0.958448
0.95997
0.965715
0.960674
0.963558
0.968588
0.963728
0.96651
0.970143
0.969012
0.965099
0.961328
0.967384
0.96399
0.964928
0.965616
0.9661
0.969439
0.970822
0.971317
0.959528
0.960095
0.961908
0.957139
0.955413
0.954979
0.959554
0.955973
0.958612
0.968093
0.965499
0.95971
0.959952
0.961565
0.970527
0.963271
0.967982
0.967182
0.971342
0.970596
0.963628
0.965216
0.960946
0.969005
0.965065
0.966379
0.967473
0.968416
0.970523
0.97234
0.972651
0.959264
0.95915
0.96134
0.962363
0.9549
0.954419
0.956426
0.954042
0.955523
0.959891
0.955003
0.956531
0.968903
0.967335
0.963485
0.958435
0.958802
0.961233
0.97135
0.964789
0.965469
0.969262
0.967594
0.972307
0.971553
0.971771
0.964865
0.96168
0.967095
0.962728
0.960328
0.970153
0.965615
0.966638
0.967791
0.969297
0.968457
0.969483
0.973148
0.971679
0.975202
0.975003
0.959466
0.959163
0.961891
0.962194
0.955143
0.953666
0.953796
0.957215
0.952734
0.954864
0.960293
0.956481
0.969123
0.967575
0.961847
0.961341
0.959045
0.956857
0.973524
0.964951
0.966998
0.966998
0.97078
0.970867
0.969962
0.968501
0.974488
0.972923
0.972627
0.964186
0.96097
0.967414
0.963986
0.960388
0.969621
0.965043
0.966461
0.966954
0.968886
0.96966
0.96986
0.974333
0.974044
0.970849
0.975943
0.976306
0.976174
0.956461
0.959021
0.960422
0.96175
0.964036
0.953915
0.954035
0.951917
0.955941
0.952447
0.953002
0.955533
0.957299
0.956323
0.968795
0.971816
0.966592
0.967614
0.958561
0.962376
0.959071
0.958085
0.956608
0.964603
0.966707
0.969309
0.966243
0.971916
0.969391
0.971257
0.967192
0.974193
0.974946
0.973685
0.972128
0.974493
0.963381
0.96329
0.961555
0.961654
0.957692
0.968036
0.969988
0.966787
0.967675
0.968679
0.970361
0.969989
0.971167
0.972973
0.9758
0.975737
0.972638
0.976966
0.978166
0.975774
0.977243
0.956865
0.955351
0.960264
0.961021
0.962786
0.964066
0.952899
0.953195
0.951079
0.951505
0.954826
0.955678
0.950964
0.952571
0.952939
0.956742
0.955538
0.956566
0.967381
0.970558
0.97254
0.964754
0.963555
0.970567
0.957294
0.958684
0.961698
0.958184
0.956638
0.966083
0.968308
0.965452
0.970273
0.965814
0.972769
0.970409
0.971209
0.967351
0.975962
0.975812
0.97466
0.97396
0.976483
0.974458
0.96225
0.9609
0.959843
0.958556
0.959086
0.956585
0.967702
0.969852
0.967242
0.968298
0.969037
0.9704
0.971061
0.972314
0.97387
0.978653
0.974351
0.975224
0.971844
0.979649
0.978627
0.982366
0.978822
0.977704
0.979715
0.956616
0.955497
0.96028
0.961139
0.963526
0.963909
0.952652
0.95221
0.951179
0.950395
0.950597
0.954022
0.955609
0.949686
0.951798
0.954019
0.9518
0.955597
0.954601
0.967028
0.970592
0.972512
0.973978
0.964413
0.963072
0.964194
0.969043
0.957535
0.960811
0.957459
0.956362
0.966644
0.968153
0.965727
0.970903
0.970569
0.971864
0.966044
0.977406
0.974447
0.975753
0.977194
0.973634
0.974563
0.962512
0.958605
0.958838
0.965511
0.960229
0.95981
0.956391
0.960391
0.95601
0.969011
0.970335
0.97184
0.971708
0.966861
0.968346
0.968927
0.970507
0.970881
0.973837
0.972441
0.974038
0.978474
0.974954
0.976891
0.980048
0.98192
0.983632
0.984377
0.982503
0.981095
0.981306
0.958536
0.956437
0.954174
0.96075
0.962827
0.963241
0.964891
0.952863
0.95167
0.951388
0.950695
0.948275
0.950916
0.954592
0.948965
0.950207
0.951566
0.953163
0.953532
0.955585
0.956567
0.966229
0.97083
0.971714
0.975384
0.963011
0.964706
0.964931
0.971378
0.954303
0.959136
0.955265
0.954097
0.966461
0.968647
0.964777
0.97069
0.972054
0.97333
0.965775
0.975179
0.979064
0.976451
0.978713
0.983208
0.974876
0.974844
0.975071
0.964282
0.960185
0.956713
0.961027
0.96567
0.964404
0.957214
0.960704
0.95853
0.95331
0.955479
0.954896
0.967079
0.970622
0.974986
0.968137
0.968759
0.969686
0.970815
0.971604
0.972739
0.975399
0.974593
0.976071
0.981776
0.978014
0.977596
0.982629
0.983277
0.985232
0.984072
0.98611
0.983705
0.98286
0.981577
0.958672
0.954809
0.95352
0.962045
0.96276
0.964036
0.965336
0.95155
0.952208
0.950006
0.951255
0.947588
0.94801
0.950829
0.949975
0.953971
0.947554
0.94877
0.949444
0.954565
0.951473
0.955132
0.968922
0.972178
0.973168
0.976338
0.962993
0.963842
0.963157
0.96821
0.973552
0.953889
0.957714
0.952828
0.955342
0.952483
0.951902
0.967872
0.966967
0.969987
0.973168
0.971589
0.974646
0.965065
0.977915
0.982059
0.979002
0.982715
0.982831
0.978741
0.972817
0.978384
0.977384
0.963517
0.957431
0.962529
0.956806
0.956322
0.963151
0.96396
0.957673
0.961979
0.960967
0.956542
0.955459
0.957762
0.954597
0.965117
0.96794
0.970812
0.973005
0.968643
0.969326
0.970228
0.97142
0.972222
0.973098
0.974875
0.977599
0.976165
0.978677
0.982068
0.983855
0.9862
0.985838
0.982665
0.985859
0.988182
0.985879
0.984439
0.983544
0.981587
0.982798
0.958376
0.954068
0.953927
0.962169
0.962739
0.964568
0.964946
0.949815
0.951031
0.951955
0.948979
0.946948
0.947503
0.947283
0.951044
0.949803
0.946874
0.948463
0.948267
0.949995
0.952669
0.968663
0.973302
0.973423
0.979299
0.963054
0.964737
0.965608
0.969556
0.975673
0.952108
0.951536
0.952715
0.955804
0.950576
0.952339
0.9513
0.968084
0.96646
0.971291
0.973013
0.971969
0.976081
0.96523
0.982432
0.98237
0.981103
0.982345
0.986209
0.983975
0.98455
0.978571
0.973597
0.976829
0.981162
0.974118
0.979255
0.955307
0.957283
0.960832
0.962779
0.955935
0.95492
0.956096
0.965023
0.96192
0.966398
0.956026
0.958501
0.959861
0.959521
0.955925
0.956852
0.956018
0.953691
0.956383
0.951691
0.954374
0.96569
0.967073
0.969226
0.971294
0.978031
0.96712
0.968598
0.970126
0.971292
0.972598
0.97558
0.976211
0.979325
0.978784
0.98423
0.985993
0.988013
0.988168
0.983044
0.985946
0.98895
0.98931
0.987171
0.988384
0.987593
0.983644
0.981837
0.960423
0.952888
0.962381
0.963231
0.964219
0.966945
0.948948
0.950736
0.950502
0.947851
0.947395
0.947664
0.946293
0.950254
0.950402
0.949211
0.950489
0.947332
0.947221
0.949328
0.950279
0.949852
0.952758
0.968293
0.972946
0.975289
0.981486
0.979691
0.96087
0.964753
0.965619
0.961168
0.969526
0.970697
0.975444
0.9521
0.952275
0.953607
0.949027
0.950345
0.948066
0.950857
0.967724
0.969424
0.969664
0.974737
0.973852
0.980908
0.975287
0.962408
0.983628
0.982586
0.983866
0.98264
0.986809
0.982863
0.988015
0.984113
0.97711
0.979963
0.975218
0.974373
0.978995
0.976748
0.955365
0.956247
0.955671
0.960268
0.961649
0.95508
0.952175
0.955525
0.957689
0.963994
0.961664
0.957554
0.964311
0.956441
0.959921
0.956571
0.954527
0.958246
0.95547
0.951558
0.95599
0.950574
0.947996
0.950748
0.95747
0.964025
0.965647
0.968132
0.972687
0.975891
0.973925
0.968241
0.969156
0.970761
0.971375
0.973207
0.974805
0.97786
0.97891
0.979513
0.979754
0.978772
0.987218
0.98246
0.988784
0.990638
0.989835
0.989091
0.985855
0.986312
0.987048
0.992507
0.99189
0.990502
0.990044
0.990131
0.988941
0.98839
0.982678
0.960814
0.952579
0.963596
0.964917
0.966775
0.94729
0.947613
0.949052
0.950448
0.947394
0.945226
0.946792
0.945774
0.950116
0.947564
0.950338
0.945851
0.947569
0.947629
0.948994
0.950293
0.96986
0.971626
0.974323
0.975422
0.982057
0.960861
0.963402
0.963957
0.962543
0.963645
0.969709
0.973306
0.970531
0.97634
0.981384
0.949656
0.949283
0.953819
0.948377
0.947734
0.950107
0.944353
0.948142
0.947513
0.96972
0.967754
0.971894
0.97527
0.973069
0.979184
0.980629
0.973397
0.972388
0.962749
0.982868
0.991723
0.983162
0.984898
0.983398
0.983384
0.983996
0.993207
0.987367
0.984556
0.986616
0.991798
0.981814
0.987538
0.974042
0.978735
0.980547
0.974456
0.976313
0.981545
0.976954
0.978682
0.953147
0.955836
0.958432
0.954222
0.953918
0.960505
0.962775
0.952162
0.950336
0.949545
0.953977
0.956669
0.960827
0.963673
0.957556
0.961479
0.964522
0.95614
0.957721
0.959961
0.95642
0.953298
0.956524
0.955306
0.952359
0.950929
0.9572
0.958942
0.94663
0.950334
0.947219
0.950262
0.950053
0.960495
0.954029
0.966154
0.96585
0.969807
0.971896
0.982699
0.974628
0.97309
0.975342
0.966567
0.968565
0.966727
0.971102
0.972096
0.973396
0.981637
0.980304
0.980444
0.980369
0.987924
0.984716
0.989868
0.994841
0.992757
0.994101
0.984691
0.986621
0.994736
0.996211
0.9912
0.993581
0.991655
0.990547
0.989831
0.98491
0.960353
0.951496
0.963302
0.965863
0.966692
0.946965
0.947491
0.94841
0.949588
0.946871
0.944506
0.945503
0.944392
0.948881
0.946135
0.949291
0.943919
0.946553
0.946724
0.945913
0.94883
0.948926
0.969615
0.971219
0.973365
0.977574
0.980262
0.961139
0.965293
0.963217
0.961355
0.970492
0.964191
0.972607
0.974551
0.976436
0.972786
0.975068
0.979303
0.983978
0.983385
0.984057
0.948894
0.948835
0.949852
0.948169
0.952954
0.946679
0.947706
0.94576
0.945658
0.947258
0.948073
0.944486
0.945047
0.943532
0.943452
0.946296
0.969685
0.967469
0.97144
0.97917
0.972524
0.972567
0.981188
0.980036
0.980339
0.970356
0.974496
0.971263
0.973515
0.961395
0.962993
0.991977
0.993811
0.99145
0.985261
0.986408
0.987227
0.987166
0.984867
0.996612
0.987784
0.99409
0.983089
0.984806
0.990828
0.983417
0.990936
0.975722
0.978918
0.983241
0.977097
0.978889
0.978248
0.953562
0.952488
0.957388
0.958408
0.954277
0.95465
0.962263
0.959228
0.960359
0.960707
0.950704
0.948481
0.947484
0.950337
0.955762
0.953399
0.959743
0.95419
0.957449
0.963867
0.954387
0.962886
0.959504
0.964112
0.957879
0.95504
0.955779
0.95221
0.958498
0.95447
0.951018
0.949606
0.959152
0.955894
0.961546
0.945718
0.946227
0.945632
0.946022
0.948142
0.947249
0.949769
0.950522
0.950861
0.960595
0.95194
0.963603
0.966168
0.964251
0.967683
0.967656
0.972111
0.980057
0.984787
0.978258
0.971108
0.975047
0.970199
0.978657
0.960783
0.963839
0.970221
0.971661
0.972618
0.982215
0.980369
0.98357
0.983846
0.989699
0.986864
0.984194
0.992348
0.999842
0.998682
0.998825
0.985171
0.992455
0.99818
0.999408
0.998729
0.995367
0.999371
0.991867
0.996069
0.988604
0.989107
0.950051
0.964609
0.965315
0.968612
0.946018
0.946466
0.946421
0.947332
0.94426
0.943532
0.948426
0.945509
0.946322
0.943774
0.944133
0.946682
0.944978
0.949599
0.946332
0.969439
0.971622
0.973274
0.984125
0.963778
0.963403
0.961665
0.969526
0.963201
0.969566
0.975123
0.976503
0.971529
0.976597
0.982432
0.977404
0.986423
0.983778
0.985722
0.987498
0.987671
0.946466
0.946507
0.949706
0.948155
0.946215
0.94649
0.944792
0.942375
0.943069
0.946272
0.946899
0.945349
0.943376
0.94357
0.943166
0.944195
0.943471
0.944338
0.969321
0.96968
0.97719
0.975296
0.97233
0.98375
0.980031
0.982153
0.981173
0.979723
0.970499
0.974011
0.969089
0.970937
0.971639
0.977726
0.961466
0.996681
0.992858
0.997179
0.993361
0.990852
0.985668
0.98839
0.992579
0.989633
0.994559
0.988688
1.00336
0.993045
0.99487
0.999017
0.993058
0.98213
0.984983
0.98951
0.994499
0.984325
0.987671
0.991732
0.977593
0.976244
0.979217
0.980446
0.983234
0.980901
0.980041
0.953782
0.952173
0.956949
0.954972
0.95174
0.953944
0.960595
0.958265
0.960012
0.96328
0.948714
0.949443
0.945225
0.946142
0.948227
0.95378
0.952092
0.951725
0.96162
0.954451
0.957914
0.96486
0.95379
0.954616
0.962583
0.959383
0.958581
0.963568
0.957975
0.954643
0.958456
0.955067
0.953448
0.949991
0.954727
0.95324
0.95148
0.949328
0.94988
0.958158
0.954932
0.958944
0.961941
0.944719
0.943953
0.945165
0.944841
0.946403
0.943917
0.945203
0.944423
0.948719
0.947142
0.951844
0.945979
0.946724
0.955664
0.96287
0.954184
0.963865
0.964714
0.96423
0.967452
0.963797
0.966889
0.966199
0.969925
0.972009
0.981901
0.984093
0.985135
0.975244
0.969371
0.971463
0.977944
0.974023
0.972362
0.986414
0.980897
0.960227
0.957901
0.962982
0.967575
0.966683
0.971268
0.973177
0.97403
0.983318
0.982128
0.985352
0.984338
0.994048
0.988679
0.988447
0.986258
0.995055
1.00092
1.00087
1.0011
1.00123
0.995182
1.00242
1.00389
1.00339
1.00177
0.998164
0.990939
1.00051
0.989792
0.949545
0.967041
0.96856
0.944724
0.945002
0.946332
0.943044
0.943429
0.943327
0.943618
0.942003
0.944146
0.943195
0.947851
0.946532
0.971554
0.963523
0.968957
0.962066
0.967883
0.961882
0.963923
0.969421
0.977057
0.975804
0.976628
0.982228
0.969617
0.974065
0.983512
0.981254
0.991945
0.987862
0.98412
0.98903
0.99106
0.996044
0.944373
0.945815
0.945806
0.948099
0.946424
0.943293
0.943877
0.943038
0.941605
0.940719
0.941385
0.941678
0.943049
0.942591
0.947138
0.944385
0.94337
0.942668
0.941974
0.942331
0.942973
0.942174
0.94255
0.969965
0.976802
0.974586
0.982417
0.979693
0.980012
0.987617
0.977871
0.982656
0.978475
0.969628
0.971601
0.970982
0.973281
0.978419
0.967005
0.967811
0.969884
0.974008
0.977247
0.977401
0.961158
0.999778
0.997888
0.995398
1.00122
0.991708
0.996176
0.992622
0.989701
0.985113
0.997374
0.999435
0.987879
0.997232
0.998237
0.990534
1.00772
0.998185
0.999642
0.991718
0.998637
0.998132
0.984829
0.986439
0.991015
0.992547
0.985581
0.989423
0.992203
0.977017
0.980126
0.982795
0.980773
0.986143
0.954219
0.952989
0.95126
0.957359
0.953156
0.954178
0.949149
0.951213
0.953183
0.959077
0.960929
0.958448
0.958697
0.962683
0.948005
0.946934
0.949925
0.945791
0.94508
0.945367
0.94299
0.949756
0.945921
0.953933
0.951691
0.952393
0.957998
0.951879
0.953204
0.957191
0.960438
0.951223
0.953241
0.953964
0.96381
0.961727
0.956253
0.958178
0.958014
0.958947
0.961361
0.967647
0.957917
0.95646
0.951383
0.953862
0.950709
0.949966
0.947594
0.957466
0.960225
0.955481
0.95767
0.96081
0.962264
0.942886
0.943807
0.942506
0.941859
0.94313
0.942672
0.943982
0.945124
0.942461
0.942774
0.943658
0.944188
0.949423
0.952844
0.944012
0.946727
0.952123
0.949305
0.941171
0.947508
0.959943
0.96526
0.96514
0.968612
0.947595
0.951242
0.962191
0.963628
0.964587
0.965971
0.960838
0.963242
0.967811
0.966062
0.966003
0.964502
0.967939
0.969435
0.973535
0.983373
0.989139
0.982858
0.979305
0.973865
0.974638
0.966366
0.968079
0.966265
0.985097
0.976275
0.974765
0.991133
0.978709
0.988198
0.962938
0.960292
0.956349
0.962501
0.968603
0.971666
0.97321
0.974618
0.984779
0.982956
0.98606
0.985043
0.996475
0.992129
0.990693
0.986954
1.00056
1.00079
1.00455
1.00567
1.00108
1.00652
1.00552
1.00395
0.999336
0.994201
1.00235
0.993056
0.967194
0.967738
0.945834
0.941269
0.94217
0.943464
0.941387
0.943182
0.966627
0.969231
0.962226
0.967971
0.964053
0.963755
0.964303
0.97113
0.976834
0.980779
0.976604
0.974937
0.980516
0.982015
0.98467
0.971008
0.968635
0.973931
0.980117
0.989694
0.995652
0.98946
0.989614
0.992198
0.99629
0.9438
0.944319
0.944192
0.947182
0.945626
0.943175
0.94167
0.941232
0.942279
0.940515
0.942084
0.938654
0.939899
0.938128
0.941046
0.93933
0.941097
0.938918
0.944442
0.947394
0.94123
0.941308
0.94175
0.941319
0.942548
0.941065
0.940743
0.970448
0.973053
0.981819
0.979213
0.981655
0.987119
0.979241
0.977709
0.98031
0.978008
0.968242
0.971112
0.973929
0.974766
0.9711
0.970878
0.976052
0.979531
0.978483
0.966352
0.96819
0.969034
0.971713
0.975771
0.975359
0.99979
1.00573
1.00084
1.00686
0.9976
0.993594
0.995703
0.998005
0.995311
0.997019
0.99089
0.998846
0.997924
1.00413
0.993999
1.00133
1.00047
0.995601
0.999687
0.989109
1.01107
1.00219
0.998191
1.00143
0.997449
0.997281
1.00011
0.984948
0.986996
0.991933
0.994302
0.9919
0.984775
0.988812
0.988052
0.995141
0.978902
0.982268
0.981638
0.984484
0.95494
0.951594
0.952904
0.94902
0.951357
0.953933
0.959542
0.956191
0.957936
0.959212
0.960028
0.946925
0.946623
0.947157
0.944822
0.945634
0.941582
0.943738
0.940723
0.94105
0.942856
0.948032
0.943581
0.945816
0.953644
0.954577
0.950236
0.948812
0.949335
0.951308
0.947297
0.953014
0.959237
0.959643
0.948264
0.951828
0.952167
0.961836
0.96086
0.955967
0.958862
0.956836
0.957762
0.957044
0.961991
0.966055
0.956761
0.951895
0.954582
0.951645
0.95067
0.950596
0.948786
0.946708
0.945056
0.957563
0.960364
0.959975
0.955121
0.956914
0.960299
0.961065
0.961631
0.941422
0.940989
0.940327
0.93959
0.940542
0.941564
0.939565
0.941844
0.941121
0.941083
0.942582
0.942744
0.950789
0.95427
0.942667
0.94693
0.953059
0.946962
0.944879
0.941939
0.944547
0.957122
0.955878
0.960843
0.966561
0.96466
0.96594
0.968485
0.969453
0.943838
0.942344
0.946815
0.962181
0.965373
0.966399
0.961315
0.961573
0.964203
0.965928
0.967371
0.965348
0.965572
0.96445
0.963117
0.967455
0.970748
0.975486
0.986051
0.988066
0.98782
0.987403
0.981849
0.9752
0.976812
0.972877
0.97539
0.970677
0.960464
0.965392
0.967594
0.9659
0.971297
0.990271
0.98348
0.994117
0.990807
0.97127
0.982631
0.987306
0.986827
0.968648
0.956501
0.957918
0.957673
0.953955
0.957098
0.956312
0.96807
0.971188
0.973986
0.988072
0.98597
0.989841
0.996348
0.988697
0.99025
0.992417
1.00392
1.00799
1.01037
1.00831
1.00179
1.00455
1.00818
1.01292
1.01259
0.999049
1.00096
0.995406
1.0054
1.00247
0.968694
0.938696
0.942009
0.94097
0.966694
0.963868
0.96723
0.968625
0.963856
0.965557
0.979952
0.981645
0.979693
0.975658
0.98048
0.981013
0.983286
0.982734
0.989594
0.970061
0.97094
0.965583
0.971489
0.977876
0.980678
0.986924
0.994537
0.987375
0.993135
0.991911
0.994572
0.997946
0.941793
0.942028
0.947755
0.94281
0.942023
0.937999
0.938171
0.939566
0.939512
0.940923
0.941421
0.937895
0.938269
0.93771
0.937597
0.936727
0.936169
0.939987
0.933658
0.939141
0.94194
0.94292
0.937901
0.940786
0.938808
0.9393
0.939335
0.940482
0.938736
0.938394
0.979001
0.985949
0.97861
0.978159
0.985086
0.990212
0.978104
0.976622
0.982366
0.976706
0.967281
0.970065
0.970568
0.97266
0.975447
0.971717
0.968883
0.972431
0.974105
0.978681
0.977768
0.966325
0.966921
0.968194
0.9737
0.972088
0.975319
0.976215
1.00531
1.00214
1.00619
1.01185
1.01239
1.01177
1.00279
0.998208
0.995813
0.9961
1.00025
0.998783
0.991699
1.00173
1.00586
1.00132
1.00094
1.00777
0.996144
1.00414
1.00606
1.00457
1.00235
0.999631
0.998985
1.00176
0.994892
1.01352
1.00809
1.01539
1.00188
0.998984
0.998965
1.00198
1.00179
0.986441
0.988702
0.99325
0.987413
0.986616
0.991367
0.996883
0.994429
0.984748
0.954186
0.950965
0.952073
0.953589
0.948919
0.950557
0.951853
0.952201
0.956051
0.959484
0.960044
0.959747
0.947115
0.946647
0.942599
0.941684
0.940157
0.940699
0.940336
0.938649
0.941632
0.947527
0.943382
0.945657
0.952061
0.95545
0.951998
0.948551
0.949097
0.945898
0.9466
0.950957
0.947674
0.950007
0.95762
0.947301
0.948756
0.953044
0.961585
0.960774
0.954526
0.95561
0.95725
0.955576
0.956871
0.95344
0.960519
0.961173
0.962804
0.965648
0.954334
0.952413
0.949016
0.945138
0.947161
0.944007
0.958175
0.959897
0.958923
0.95508
0.955964
0.956482
0.960353
0.961131
0.962777
0.964181
0.940493
0.939495
0.939675
0.938773
0.938517
0.939966
0.936655
0.938973
0.940183
0.94025
0.941062
0.941567
0.953885
0.950589
0.955623
0.939657
0.942917
0.940876
0.948543
0.942018
0.940061
0.944229
0.945968
0.938203
0.939904
0.944154
0.953862
0.958785
0.957444
0.952796
0.96284
0.962551
0.964598
0.965317
0.968682
0.969612
0.964209
0.969653
0.973109
0.945452
0.939318
0.94085
0.944526
0.947338
0.961894
0.965362
0.960605
0.962184
0.966296
0.965645
0.968115
0.963492
0.965226
0.963995
0.963994
0.962528
0.967549
0.968705
0.969102
0.974044
0.97921
0.980456
0.987849
0.997044
0.987401
0.988574
0.991085
0.983373
0.975412
0.976529
0.981788
0.976914
0.972579
0.968696
0.970125
0.971175
0.969788
0.959067
0.961416
0.966534
0.967318
0.967405
0.969569
0.993631
0.978944
0.97909
0.999342
0.99394
0.996071
0.97346
0.979826
0.986311
0.989316
0.986819
0.965715
0.952278
0.955228
0.958074
0.955267
0.958268
0.954705
0.960842
0.972582
0.973609
0.988691
0.991444
0.989061
0.993539
0.998676
0.99433
0.995523
1.01364
1.01497
1.01203
1.00912
1.01306
1.02212
1.00443
1.01739
1.00004
1.00353
1.0081
1.00426
0.938083
0.938799
0.963168
0.968035
0.969878
0.963101
0.965594
0.965732
0.979878
0.976791
0.980795
0.980931
0.988086
0.98428
0.98694
0.991765
0.973176
0.968274
0.972171
0.967312
0.974223
0.978241
0.976301
0.981405
0.982493
0.985606
0.99492
0.992386
0.996943
0.99393
0.994152
0.995594
0.999046
0.94025
0.940475
0.944741
0.941184
0.941596
0.937071
0.937664
0.939892
0.939307
0.936338
0.937053
0.936459
0.93914
0.936908
0.936495
0.937647
0.935645
0.936185
0.938522
0.938533
0.934109
0.932676
0.93845
0.940644
0.941378
0.943448
0.936105
0.937436
0.936898
0.940269
0.935168
0.937664
0.936059
0.939189
0.937755
0.937329
0.978039
0.981271
0.986187
0.977784
0.980206
0.978461
0.981782
0.98764
0.989378
0.979821
0.984936
0.982438
0.976011
0.966888
0.970819
0.969707
0.969949
0.974534
0.974389
0.970119
0.96734
0.970951
0.974148
0.975887
0.977993
0.982222
0.978587
0.970035
0.973693
0.977511
0.976417
1.01528
1.00456
1.01688
1.00564
1.01246
1.02065
1.02226
1.01391
1.01285
1.00202
0.999855
0.995949
1.00168
0.99824
0.988789
0.994122
1.00037
1.00333
1.00601
1.01481
0.996533
1.01525
1.01882
0.99398
1.00777
1.01342
1.01616
1.00683
1.00084
1.00132
1.00653
1.0205
1.01124
1.024
1.00557
0.999923
0.997484
1.00405
1.00087
1.00538
0.988805
0.99098
0.990786
0.989761
0.987082
0.989364
0.994076
0.994329
0.952347
0.947714
0.948888
0.949813
0.951467
0.952068
0.95251
0.956018
0.959387
0.959228
0.946552
0.946733
0.944399
0.941833
0.9399
0.939228
0.939505
0.938128
0.940414
0.947671
0.943041
0.944001
0.945228
0.950198
0.951985
0.952457
0.950072
0.947494
0.94763
0.943282
0.944804
0.947099
0.944024
0.943271
0.952614
0.958095
0.95468
0.948021
0.947898
0.95153
0.960063
0.961088
0.958348
0.954776
0.954883
0.956283
0.955928
0.953614
0.953231
0.95343
0.961397
0.957047
0.96108
0.958546
0.962799
0.96182
0.954919
0.952447
0.948698
0.944169
0.946003
0.94644
0.944927
0.945041
0.958123
0.961675
0.95541
0.957361
0.954858
0.95973
0.960976
0.961971
0.96231
0.963739
0.961614
0.965157
0.937446
0.939029
0.936597
0.937281
0.937627
0.938557
0.936797
0.936677
0.935654
0.938581
0.937045
0.939499
0.939602
0.937571
0.939312
0.939901
0.952356
0.953394
0.939954
0.937848
0.940817
0.941342
0.938678
0.947847
0.936152
0.94433
0.939133
0.944657
0.941838
0.939036
0.939638
0.939732
0.940664
0.955692
0.952926
0.948142
0.959802
0.959365
0.946892
0.956676
0.963024
0.97217
0.97297
0.96922
0.963973
0.963482
0.968611
0.967349
0.967637
0.967502
0.967799
0.973545
0.981914
0.944263
0.936896
0.938871
0.941874
0.944776
0.943577
0.963538
0.960022
0.962508
0.964686
0.964961
0.966668
0.963238
0.965967
0.963558
0.96355
0.961887
0.961487
0.967518
0.970198
0.967206
0.96655
0.973318
0.975291
0.97857
0.981116
0.991249
0.991879
0.992865
0.997012
0.987181
0.987298
0.992038
0.988962
0.983351
0.976383
0.978809
0.971495
0.979471
0.981829
0.972055
0.972339
0.974306
0.967266
0.967433
0.966847
0.967003
0.958274
0.960132
0.964404
0.963227
0.964623
0.967401
0.980264
0.984037
1.00249
0.99638
1.00085
0.996029
0.972288
0.98192
0.98865
0.987521
0.987475
0.967854
0.95397
0.95268
0.955112
0.958233
0.955857
0.952986
0.955274
0.957898
0.951786
0.953477
0.959597
0.971488
0.988966
0.992078
0.9911
0.993745
0.998598
0.993397
0.99589
1.02118
1.01718
1.0124
1.01012
1.00969
1.01637
1.01097
1.02608
1.00666
1.02355
1.01654
1.00506
1.00527
1.00822
1.00531
0.967875
0.965245
0.965029
0.975406
0.982115
0.982968
0.98999
0.992377
0.984628
0.992932
0.9938
0.968847
0.971973
0.973286
0.966792
0.978804
0.977597
0.977712
0.984277
0.986887
0.988867
0.996879
0.998817
0.997908
0.999674
1.00204
0.939778
0.943819
0.942324
0.939959
0.935784
0.940268
0.937483
0.93569
0.938055
0.93708
0.935602
0.93391
0.933235
0.932972
0.936054
0.935957
0.938454
0.937869
0.932847
0.932491
0.93373
0.935998
0.937956
0.936805
0.940006
0.940155
0.943165
0.937144
0.935671
0.937696
0.93427
0.937582
0.935436
0.934086
0.934314
0.935273
0.979983
0.981637
0.983784
0.976612
0.978634
0.979371
0.976883
0.984236
0.98811
0.983931
0.968137
0.97021
0.968065
0.975556
0.973694
0.973041
0.97579
0.969781
0.971665
0.965998
0.96929
0.969287
0.972899
0.974481
0.975182
0.97938
0.977138
0.98125
0.984402
0.974959
0.976402
1.00948
1.01912
1.01455
1.0036
1.01772
1.01344
1.01782
1.01353
1.02705
1.026
1.02448
1.01522
1.01777
1.00662
0.996704
0.999323
1.00324
1.00015
0.997026
0.987842
0.990955
0.99293
1.00126
1.00233
1.01357
1.01425
1.0222
1.00466
1.01376
1.01854
1.02078
1.00629
1.00763
1.00855
1.01285
1.01707
1.01866
1.01299
1.00539
0.998919
1.00408
1.01147
1.02112
1.02645
1.00437
1.00631
1.00233
1.01107
0.992631
0.988457
0.991892
0.988843
0.996349
0.994083
0.94711
0.948126
0.950371
0.951379
0.952883
0.957925
0.958003
0.944122
0.939581
0.938144
0.939333
0.93817
0.938473
0.936778
0.945399
0.941991
0.941112
0.944545
0.949915
0.952677
0.952164
0.946643
0.945526
0.944694
0.9483
0.941959
0.943522
0.946559
0.940654
0.942169
0.944562
0.950419
0.955069
0.947753
0.948228
0.951261
0.960145
0.959968
0.957727
0.956673
0.95308
0.956092
0.954016
0.95305
0.952398
0.952703
0.952779
0.960716
0.957484
0.957166
0.954516
0.960576
0.957825
0.961967
0.962824
0.950994
0.946835
0.94411
0.948286
0.945492
0.947664
0.945058
0.947416
0.94438
0.94187
0.961913
0.955541
0.954875
0.954921
0.960304
0.962061
0.964939
0.964296
0.962722
0.96478
0.963266
0.965201
0.935826
0.936801
0.93473
0.936072
0.937844
0.936823
0.936736
0.936492
0.934538
0.93597
0.93527
0.9361
0.932961
0.936564
0.936578
0.937985
0.938162
0.938548
0.935876
0.936711
0.937507
0.938424
0.951374
0.953559
0.936629
0.936562
0.937931
0.938205
0.941238
0.941331
0.948277
0.93747
0.937648
0.941706
0.944274
0.937466
0.94187
0.942303
0.937295
0.937533
0.938473
0.93973
0.939745
0.939341
0.966493
0.957648
0.954133
0.95187
0.959566
0.958144
0.953334
0.953412
0.953136
0.965614
0.971077
0.974723
0.973073
0.978361
0.966745
0.966243
0.966324
0.969885
0.971307
0.966423
0.968765
0.968239
0.967615
0.967709
0.97042
0.972524
0.973054
0.941593
0.938303
0.931662
0.936745
0.938441
0.944263
0.942612
0.946667
0.940826
0.939716
0.942003
0.961342
0.963705
0.966658
0.964429
0.964584
0.962508
0.962488
0.961006
0.961172
0.968266
0.964826
0.970205
0.966299
0.964001
0.963987
0.973118
0.976621
0.976487
0.990035
0.996947
0.991038
0.994605
1.00979
0.985324
0.985918
0.990483
0.991066
0.988236
0.981429
0.980487
0.982516
0.976624
0.974655
0.971254
0.970933
0.984495
0.98027
0.983022
0.992445
0.968086
0.974361
0.967286
0.970667
0.971621
0.966303
0.965318
0.964482
0.966214
0.966533
0.96411
0.954339
0.958269
0.960112
0.962355
0.963648
0.97902
0.971755
0.981696
1.00226
1.0041
1.00676
1.00105
0.995548
0.998066
0.979255
0.988569
0.997384
0.989568
0.988479
0.963556
0.952194
0.948338
0.955974
0.956135
0.952259
0.951165
0.958531
0.955359
0.95673
0.950019
0.951319
0.967583
0.953141
0.97268
0.992591
0.999728
0.997477
0.997647
0.99528
1.00082
1.02091
1.02166
1.01901
1.01797
1.00835
1.01293
1.01917
1.01575
1.0356
1.00591
1.02987
1.02697
1.01535
1.00149
1.0109
1.00532
0.966083
0.967395
0.977118
0.98926
0.982783
0.991138
0.991348
0.992358
0.988595
0.992832
0.993756
0.968682
0.97354
0.979885
0.980629
0.975611
0.979181
0.986445
0.981289
0.98828
0.988204
1.00065
1.00079
1.00002
1.00231
0.938156
0.943003
0.940418
0.934569
0.936534
0.9347
0.937171
0.931645
0.932138
0.932653
0.935302
0.937226
0.935243
0.93749
0.932161
0.932588
0.931017
0.93598
0.935389
0.935549
0.941569
0.940316
0.940543
0.936756
0.935613
0.934818
0.934238
0.934987
0.933535
0.934516
0.930122
0.93094
0.933306
0.982493
0.980133
0.980059
0.982974
0.984255
0.984117
0.976683
0.981855
0.986739
0.986414
0.971414
0.967928
0.973821
0.974255
0.969251
0.969965
0.965339
0.968299
0.969297
0.971604
0.973604
0.97446
0.975974
0.978597
0.977924
0.977336
0.982731
0.977941
1.00951
1.01396
1.02117
1.02496
1.01131
1.01974
1.00383
1.02393
1.01239
1.01945
1.02631
1.03873
1.03665
1.03829
1.01237
1.02693
1.02818
1.00335
0.998988
0.995544
1.00109
0.996047
1.00239
1.00306
0.994958
0.993479
1.00176
0.990465
0.989712
1.00063
1.00612
1.00181
1.01558
1.01364
1.02072
1.02475
1.00659
1.01314
1.0137
1.02085
1.0323
1.00457
1.00885
1.01328
1.01266
1.00704
1.01428
1.01233
1.02631
1.01427
1.0273
1.01333
1.00523
1.00672
1.01129
1.00405
1.00207
1.02756
1.03204
1.03498
1.0061
1.00972
1.00412
0.991199
0.989776
0.996639
0.995401
0.948818
0.95742
0.943298
0.938674
0.941649
0.938386
0.944543
0.944846
0.94341
0.939544
0.94039
0.940866
0.948634
0.9504
0.949191
0.948129
0.94348
0.944415
0.947428
0.94747
0.940344
0.940365
0.94431
0.940137
0.939246
0.94092
0.942463
0.946803
0.945895
0.947772
0.947128
0.950411
0.952223
0.958603
0.958997
0.956297
0.952969
0.953923
0.952705
0.95248
0.951466
0.951319
0.951141
0.954219
0.961286
0.956213
0.956677
0.957275
0.953424
0.960961
0.959661
0.957163
0.957139
0.961592
0.951722
0.942804
0.945281
0.943728
0.947665
0.942998
0.945337
0.948192
0.941093
0.945356
0.954962
0.957435
0.959472
0.955209
0.95958
0.960627
0.962857
0.96554
0.961361
0.96202
0.967388
0.934
0.935139
0.934079
0.934262
0.934622
0.933772
0.933335
0.9344
0.93388
0.934129
0.932864
0.934231
0.933889
0.936378
0.936297
0.935487
0.936435
0.934888
0.934343
0.935625
0.936344
0.936674
0.939308
0.951891
0.955741
0.933745
0.933183
0.935737
0.936465
0.936593
0.937867
0.940294
0.939249
0.946941
0.950939
0.936168
0.936911
0.937092
0.937661
0.938188
0.943633
0.936909
0.937049
0.944559
0.938376
0.93701
0.936062
0.935973
0.935813
0.938219
0.938507
0.939116
0.937743
0.938087
0.961953
0.960027
0.953273
0.951314
0.954993
0.95107
0.949996
0.956379
0.960268
0.958411
0.95651
0.968552
0.951347
0.952305
0.952185
0.978335
0.970961
0.974889
0.975094
0.978853
0.973961
0.976462
0.978487
0.968757
0.96414
0.963898
0.967885
0.972591
0.969274
0.973306
0.968859
0.971508
0.974205
0.97346
0.972184