/*--------------------------------*- C++ -*----------------------------------*\
| =========                 |                                                 |
| \\      /  F ield         | OpenFOAM: The Open Source CFD Toolbox           |
|  \\    /   O peration     | Version:  v2006                                 |
|   \\  /    A nd           | Website:  www.openfoam.com                      |
|    \\/     M anipulation  |                                                 |
\*---------------------------------------------------------------------------*/
FoamFile
{
    version     2.0;
    format      ascii;
    class       volScalarField;
    location    "14.8";
    object      T;
}
// * * * * * * * * * * * * * * * * * * * * * * * * * * * * * * * * * * * * * //

dimensions      [0 0 0 1 0 0 0];


internalField   nonuniform List<scalar> 
341797
(
0.988214
0.988026
0.988699
0.987877
0.987766
0.988315
0.989078
0.989363
0.987942
0.987337
0.987199
0.989131
0.988012
0.989473
0.989365
0.988399
0.988647
0.987782
0.986924
0.987003
0.98687
0.987509
0.989198
0.988624
0.987824
0.989937
0.989463
0.989509
0.988826
0.9888
0.987351
0.98759
0.986669
0.986235
0.987105
0.986379
0.988122
0.989509
0.988826
0.98725
0.988352
0.989937
0.990307
0.989912
0.989838
0.988191
0.988766
0.987193
0.986493
0.985968
0.98625
0.986259
0.98569
0.986727
0.985767
0.986252
0.987915
0.990056
0.988275
0.989432
0.988982
0.987295
0.986662
0.987929
0.990296
0.990135
0.990551
0.990476
0.990577
0.98987
0.990025
0.988301
0.988517
0.989513
0.987906
0.98637
0.985968
0.985643
0.985666
0.985219
0.987471
0.986288
0.985221
0.985313
0.985461
0.988623
0.989874
0.988747
0.988078
0.988836
0.989449
0.987044
0.986529
0.986352
0.988155
0.990828
0.990785
0.991329
0.990776
0.990075
0.989426
0.990344
0.988189
0.988202
0.989077
0.989402
0.986761
0.985867
0.984877
0.985543
0.985296
0.985317
0.985195
0.984498
0.987591
0.986913
0.985454
0.98485
0.98456
0.984821
0.988442
0.990502
0.987984
0.989273
0.98866
0.989064
0.989096
0.990095
0.987595
0.986039
0.987216
0.985646
0.985679
0.98832
0.990765
0.991238
0.99136
0.99192
0.991014
0.991055
0.990976
0.990337
0.99041
0.991271
0.98763
0.987973
0.988866
0.989223
0.986394
0.986254
0.985423
0.984564
0.985017
0.98506
0.985229
0.984148
0.987397
0.986501
0.984733
0.984967
0.984267
0.984091
0.988883
0.990088
0.988665
0.988403
0.989808
0.989685
0.989388
0.988543
0.989509
0.989308
0.990308
0.987811
0.986274
0.987208
0.985857
0.986089
0.987916
0.990438
0.991113
0.991615
0.991781
0.992233
0.991473
0.991626
0.991212
0.990001
0.990752
0.990425
0.991901
0.986784
0.98774
0.988455
0.988765
0.989844
0.985808
0.986112
0.984878
0.98422
0.984881
0.984834
0.984892
0.984207
0.984066
0.986885
0.988418
0.986086
0.987122
0.983728
0.984806
0.983809
0.983798
0.983948
0.989893
0.988601
0.989384
0.988167
0.990116
0.989576
0.989367
0.987822
0.989795
0.989437
0.98959
0.989639
0.991127
0.987004
0.986197
0.986143
0.984884
0.984909
0.987557
0.98821
0.991068
0.9917
0.992348
0.992445
0.99211
0.99324
0.992283
0.9922
0.991935
0.990837
0.991717
0.990995
0.992029
0.992606
0.987141
0.986112
0.988219
0.988412
0.989238
0.989559
0.985249
0.985526
0.985467
0.984642
0.983702
0.983999
0.984395
0.984069
0.984363
0.983688
0.984106
0.984102
0.986467
0.98777
0.988384
0.98532
0.985666
0.987869
0.983364
0.983291
0.98423
0.983407
0.983843
0.990502
0.989466
0.98811
0.98994
0.987832
0.990675
0.990019
0.989141
0.988042
0.99036
0.989739
0.990051
0.98944
0.991232
0.991105
0.986476
0.984993
0.985446
0.983836
0.983756
0.984655
0.987271
0.988041
0.990889
0.991493
0.992173
0.99284
0.993114
0.992571
0.993625
0.993
0.992795
0.991759
0.990832
0.992552
0.992016
0.992762
0.992695
0.99299
0.993457
0.98646
0.985692
0.987626
0.988221
0.988945
0.989238
0.984852
0.985029
0.984664
0.984798
0.984303
0.983313
0.983441
0.983748
0.983833
0.983316
0.983944
0.983267
0.983647
0.986442
0.987471
0.988288
0.988937
0.985014
0.984757
0.985844
0.98761
0.983076
0.983784
0.982928
0.982749
0.990162
0.988974
0.987904
0.990101
0.989782
0.989594
0.988131
0.990256
0.990454
0.990418
0.991914
0.991209
0.991517
0.986717
0.984825
0.98364
0.98619
0.985673
0.983448
0.982671
0.984028
0.983968
0.987479
0.987787
0.989116
0.988146
0.990555
0.991341
0.991977
0.99276
0.993271
0.993395
0.992984
0.993978
0.993586
0.993446
0.992311
0.993241
0.993146
0.993202
0.993456
0.99393
0.993968
0.994062
0.986876
0.98606
0.98526
0.987839
0.988808
0.988765
0.989677
0.984714
0.984726
0.984612
0.984739
0.983458
0.982168
0.982939
0.983482
0.983395
0.983694
0.982839
0.983215
0.98309
0.983779
0.985705
0.987438
0.987919
0.989396
0.984592
0.985356
0.985352
0.988108
0.982099
0.983195
0.981771
0.981552
0.990007
0.988989
0.987652
0.990357
0.990206
0.989598
0.98794
0.989737
0.991383
0.99099
0.991633
0.993617
0.991612
0.992074
0.991895
0.987296
0.985075
0.984021
0.984125
0.985815
0.986308
0.9862
0.985373
0.982745
0.981291
0.982405
0.984235
0.987118
0.988571
0.989532
0.986898
0.991187
0.991831
0.992788
0.993362
0.994142
0.993835
0.993971
0.994469
0.994261
0.993967
0.992935
0.993945
0.993978
0.994291
0.993272
0.993992
0.99411
0.994229
0.99411
0.987151
0.985587
0.984861
0.988335
0.988526
0.989145
0.989549
0.984358
0.984369
0.984214
0.984589
0.984001
0.983191
0.982089
0.981711
0.982438
0.983011
0.982551
0.982879
0.983176
0.981764
0.983699
0.986511
0.987797
0.988365
0.989632
0.984102
0.984595
0.98467
0.986901
0.988544
0.981453
0.982464
0.981071
0.981719
0.98087
0.981314
0.990532
0.988229
0.989517
0.990781
0.99019
0.990184
0.987153
0.990684
0.99319
0.991177
0.992772
0.993881
0.993082
0.993141
0.99299
0.99276
0.986969
0.98394
0.985686
0.98375
0.982301
0.985334
0.985742
0.985975
0.986014
0.983442
0.981989
0.981301
0.98263
0.981618
0.986859
0.98773
0.988947
0.988891
0.986731
0.990999
0.991639
0.992592
0.993146
0.993878
0.994794
0.994518
0.995156
0.995488
0.994958
0.994381
0.994644
0.994531
0.992301
0.993686
0.994481
0.994852
0.994743
0.995093
0.994728
0.994486
0.986806
0.98529
0.98495
0.988006
0.988332
0.988922
0.989325
0.983691
0.983879
0.984142
0.983745
0.983355
0.983355
0.982971
0.981567
0.981517
0.982582
0.982458
0.982512
0.981753
0.982866
0.986597
0.988023
0.988397
0.990666
0.984271
0.984777
0.986014
0.987296
0.989763
0.980948
0.980699
0.980762
0.981455
0.981054
0.980535
0.981567
0.990365
0.987952
0.989311
0.990811
0.989778
0.99114
0.987278
0.99336
0.993521
0.991536
0.992268
0.994039
0.994779
0.994209
0.993158
0.993581
0.992973
0.994188
0.994441
0.99378
0.984769
0.983719
0.984911
0.986046
0.982832
0.982236
0.983088
0.985799
0.984872
0.986153
0.985555
0.986446
0.986867
0.9828
0.981733
0.981842
0.982125
0.981231
0.982161
0.981037
0.981333
0.987125
0.987698
0.987467
0.988519
0.990238
0.985744
0.990837
0.991396
0.992315
0.993651
0.995433
0.994591
0.99533
0.995824
0.996035
0.995194
0.995412
0.995333
0.992463
0.99352
0.994956
0.996097
0.994553
0.996171
0.99656
0.995307
0.994649
0.987367
0.984452
0.988107
0.988577
0.988835
0.990027
0.983118
0.983619
0.983637
0.983123
0.983388
0.983212
0.982519
0.981434
0.981286
0.981357
0.98119
0.982631
0.982445
0.98251
0.981461
0.981771
0.982594
0.985972
0.988082
0.989365
0.99153
0.990925
0.983462
0.984291
0.985432
0.984227
0.987147
0.987147
0.989356
0.980551
0.980702
0.980969
0.980358
0.979953
0.980905
0.981257
0.990169
0.988509
0.989226
0.991439
0.990545
0.992783
0.990077
0.988264
0.993872
0.993512
0.992431
0.991979
0.995087
0.994939
0.995731
0.994245
0.992637
0.993674
0.994105
0.993376
0.99381
0.99532
0.984644
0.983651
0.983028
0.985048
0.985837
0.982788
0.98114
0.98252
0.983198
0.985088
0.984521
0.983315
0.985081
0.985864
0.986731
0.98145
0.981355
0.982423
0.98183
0.980314
0.9825
0.980905
0.979478
0.979874
0.982379
0.986983
0.987516
0.987131
0.988891
0.990143
0.988702
0.986138
0.985836
0.9916
0.992133
0.993113
0.994525
0.996347
0.995614
0.995787
0.996653
0.995836
0.997044
0.996661
0.995982
0.996666
0.99598
0.995932
0.993278
0.993285
0.994783
0.996645
0.996621
0.996342
0.996751
0.996721
0.996958
0.99711
0.995038
0.987648
0.984205
0.988577
0.989266
0.989816
0.982455
0.982678
0.983049
0.98321
0.982806
0.983071
0.982883
0.982268
0.981366
0.980754
0.981271
0.982332
0.981963
0.982144
0.981249
0.981427
0.986791
0.987568
0.988535
0.989065
0.991857
0.983119
0.984041
0.984338
0.983869
0.984987
0.987062
0.988178
0.986981
0.98947
0.99176
0.980045
0.979691
0.980709
0.980063
0.979529
0.979732
0.981929
0.980485
0.980855
0.990847
0.988449
0.990025
0.991246
0.990253
0.991796
0.993253
0.989219
0.989988
0.987877
0.994584
0.996942
0.994184
0.993189
0.992783
0.992677
0.992925
0.997015
0.994759
0.995521
0.995929
0.99686
0.994022
0.995605
0.993152
0.993235
0.994338
0.993839
0.994715
0.994652
0.995156
0.99618
0.984487
0.98513
0.984478
0.982956
0.982628
0.985211
0.986289
0.981564
0.98087
0.980287
0.981386
0.982071
0.982912
0.984797
0.982929
0.984777
0.985675
0.985588
0.985891
0.986835
0.98152
0.980916
0.981866
0.981521
0.980711
0.97974
0.982042
0.98322
0.979734
0.980383
0.978535
0.979896
0.979259
0.983978
0.980784
0.987656
0.987216
0.988085
0.989036
0.992591
0.98909
0.988202
0.989992
0.98525
0.986055
0.985404
0.991379
0.992018
0.99275
0.996491
0.996695
0.997248
0.996759
0.997184
0.997785
0.996682
0.99833
0.997719
0.997663
0.992728
0.994213
0.997635
0.998083
0.997353
0.997644
0.997723
0.997744
0.997465
0.996028
0.987213
0.983603
0.988345
0.989161
0.989655
0.98221
0.982455
0.98261
0.982878
0.982678
0.982437
0.982341
0.981833
0.980949
0.98017
0.980795
0.981428
0.98174
0.98187
0.981664
0.98254
0.980952
0.986683
0.987384
0.988206
0.99011
0.991592
0.982796
0.984883
0.98435
0.983177
0.987013
0.985116
0.988028
0.988637
0.989585
0.988171
0.988804
0.990467
0.992597
0.992589
0.992776
0.980421
0.979536
0.97944
0.979241
0.980503
0.979712
0.979822
0.979182
0.978954
0.978814
0.979027
0.981638
0.982109
0.981482
0.980856
0.979646
0.990742
0.988341
0.989971
0.992926
0.990757
0.99021
0.992766
0.992376
0.993263
0.989124
0.989819
0.989437
0.990588
0.987443
0.988033
0.997604
0.997831
0.997441
0.99311
0.994146
0.99432
0.994614
0.993274
0.998154
0.994492
0.996693
0.995415
0.996055
0.997061
0.994776
0.997025
0.993908
0.995083
0.995144
0.994802
0.995701
0.995902
0.984683
0.984039
0.985419
0.984496
0.982859
0.982876
0.986189
0.984825
0.985079
0.987026
0.981418
0.980559
0.979968
0.980343
0.982316
0.980749
0.983471
0.980514
0.981236
0.984745
0.981799
0.985438
0.984272
0.986076
0.986212
0.981297
0.981046
0.980369
0.982237
0.981369
0.980041
0.97915
0.982638
0.9819
0.982732
0.979427
0.979089
0.981267
0.978392
0.979487
0.978979
0.979405
0.979149
0.979891
0.983647
0.980211
0.988344
0.987506
0.986563
0.98813
0.987612
0.988747
0.991814
0.993608
0.991028
0.987081
0.989766
0.987938
0.990992
0.983282
0.985214
0.991169
0.991787
0.992493
0.996856
0.9971
0.998323
0.997898
0.997855
0.998128
0.997734
0.99765
1.00027
0.99984
0.999221
0.992756
0.995982
0.998866
0.999533
0.999999
0.998366
1.00024
0.998341
0.999976
0.997562
0.997578
0.983056
0.98881
0.989051
0.990397
0.981694
0.982421
0.981785
0.981924
0.982266
0.981268
0.980674
0.980132
0.980075
0.981229
0.981321
0.981457
0.981229
0.982662
0.981624
0.986455
0.987473
0.988016
0.992558
0.984144
0.984821
0.98373
0.986525
0.984261
0.986977
0.989114
0.989743
0.988088
0.989428
0.991833
0.990197
0.993926
0.992788
0.993362
0.993745
0.994457
0.979683
0.978948
0.979177
0.979233
0.979751
0.979092
0.979748
0.978187
0.978197
0.978805
0.978334
0.978401
0.981634
0.981267
0.981251
0.981215
0.98062
0.979751
0.990535
0.98918
0.992662
0.991614
0.990453
0.994292
0.992798
0.993889
0.993655
0.993344
0.989279
0.990326
0.988869
0.989403
0.989972
0.992302
0.987586
0.999337
0.997633
0.999302
0.997426
0.997447
0.993493
0.994835
0.996763
0.995243
0.997062
0.994528
1.00112
0.9981
0.997132
0.998059
0.997294
0.996938
0.995871
0.997382
0.998127
0.995235
0.996346
0.997553
0.994551
0.993847
0.995384
0.995852
0.995341
0.996404
0.996728
0.984354
0.98368
0.985304
0.983278
0.982131
0.982446
0.987013
0.986074
0.984723
0.985826
0.982134
0.980891
0.98077
0.979744
0.979722
0.981546
0.98059
0.980318
0.98379
0.979478
0.980788
0.985282
0.981789
0.982542
0.985554
0.984421
0.983986
0.98572
0.986081
0.980866
0.981885
0.981233
0.9804
0.979736
0.981019
0.980976
0.980098
0.979355
0.979234
0.982296
0.981416
0.982597
0.983699
0.980121
0.97894
0.979089
0.980671
0.981437
0.977758
0.978797
0.978263
0.979586
0.978595
0.978257
0.978204
0.978918
0.981989
0.985584
0.980431
0.98828
0.988717
0.986902
0.987976
0.986505
0.987648
0.987119
0.987815
0.989431
0.993024
0.993234
0.994187
0.990304
0.986544
0.98827
0.990603
0.989267
0.98826
0.993429
0.99055
0.983947
0.982043
0.983182
0.986284
0.984955
0.991705
0.992348
0.993201
0.997965
0.997195
0.998762
0.998657
0.999226
0.998506
0.998421
0.998357
0.99925
1.00067
1.00046
1.00114
1.00056
0.997609
1.0004
1.00121
1.00181
1.00138
1.00076
0.998319
1.00136
0.99806
0.982849
0.989799
0.990284
0.981597
0.981467
0.981482
0.982102
0.981897
0.981037
0.980522
0.980757
0.980835
0.980626
0.982206
0.981475
0.98712
0.984458
0.986504
0.983571
0.9862
0.984098
0.984991
0.98673
0.989734
0.989054
0.989422
0.992063
0.986535
0.988736
0.992114
0.991498
0.995768
0.994133
0.992887
0.994982
0.995417
0.99756
0.979254
0.979392
0.978716
0.978782
0.97882
0.981235
0.978656
0.978548
0.979241
0.978432
0.97799
0.977774
0.978101
0.977978
0.978535
0.977696
0.978156
0.981276
0.980954
0.98088
0.980506
0.980217
0.97928
0.990957
0.993879
0.991427
0.994196
0.993205
0.993404
0.996044
0.994457
0.994516
0.992924
0.988859
0.989617
0.99003
0.99007
0.992183
0.989472
0.989885
0.990727
0.990608
0.992028
0.99233
0.987359
1.00058
1.00031
0.998661
1.00142
0.997359
0.998633
0.998231
0.994909
0.994119
0.998155
0.998543
0.994637
0.998097
0.998909
0.995674
1.00301
1.00012
0.99894
0.996278
0.998748
0.998528
0.997888
0.996833
0.998145
0.998577
0.99545
0.997143
0.998185
0.994414
0.996062
0.996692
0.995683
0.99656
0.984609
0.984023
0.98326
0.985731
0.984193
0.982801
0.982422
0.98181
0.982305
0.98645
0.987123
0.985946
0.984591
0.986019
0.981869
0.981401
0.980389
0.980972
0.980492
0.981158
0.978757
0.980059
0.978869
0.98177
0.981148
0.979875
0.983184
0.98022
0.980162
0.981702
0.983973
0.980991
0.981976
0.982532
0.986021
0.985174
0.983206
0.984227
0.983986
0.984272
0.985126
0.986583
0.981783
0.98121
0.979714
0.980679
0.979477
0.979408
0.978523
0.981855
0.983229
0.980977
0.981946
0.983164
0.983919
0.980438
0.980453
0.980044
0.978223
0.978174
0.9807
0.980512
0.981182
0.977792
0.977436
0.977747
0.977932
0.979292
0.980665
0.977696
0.978407
0.980786
0.978489
0.977654
0.978469
0.982508
0.984917
0.985337
0.986707
0.977929
0.979504
0.987764
0.988222
0.988773
0.98735
0.987194
0.986315
0.987963
0.987377
0.987362
0.986459
0.987587
0.988456
0.990115
0.994086
0.995979
0.994449
0.992145
0.989856
0.989193
0.986128
0.986954
0.986409
0.993653
0.989649
0.988626
0.994213
0.989345
0.993217
0.98374
0.983494
0.982336
0.983213
0.985427
0.991608
0.992366
0.993092
0.998682
0.998052
0.999656
0.999459
1.0009
1.00037
1.0001
0.998824
1.00111
1.0011
1.00227
1.00202
0.999554
1.00204
1.00292
1.00289
1.00151
1.00027
1.0025
0.998898
0.989631
0.990017
0.981486
0.981689
0.980798
0.980486
0.98028
0.980487
0.985568
0.986321
0.983868
0.986284
0.984549
0.985022
0.984589
0.987534
0.989604
0.99112
0.989243
0.988947
0.991527
0.991514
0.993251
0.987164
0.986135
0.98836
0.991248
0.995408
0.997112
0.994556
0.995063
0.995712
0.997093
0.980436
0.979153
0.97829
0.978272
0.978017
0.977758
0.980726
0.979761
0.977828
0.97996
0.979163
0.979275
0.978486
0.979661
0.977667
0.977152
0.97758
0.977325
0.977798
0.978576
0.977251
0.977574
0.980521
0.980223
0.980156
0.979977
0.97846
0.99097
0.99226
0.993914
0.99255
0.99412
0.996231
0.994913
0.994148
0.995392
0.993995
0.989502
0.989232
0.990366
0.99119
0.989678
0.989676
0.991469
0.992794
0.992354
0.989184
0.989701
0.99028
0.991209
0.992632
0.992928
1.00061
1.00279
1.00211
1.00211
1.00034
0.998638
0.998405
0.999113
0.999231
1.00013
0.996312
0.999361
0.999525
1.00015
0.996749
0.998952
0.999706
0.99788
0.999213
0.995718
1.00401
1.00137
0.998876
0.999509
0.998235
0.997894
0.999277
0.997763
0.998883
0.998784
0.999509
0.998481
0.995845
0.997665
0.996906
0.999452
0.995168
0.996947
0.996464
0.997465
0.984985
0.983484
0.983739
0.982294
0.982924
0.982104
0.986739
0.985227
0.9856
0.986388
0.98529
0.982037
0.981579
0.979849
0.98098
0.981178
0.979815
0.980691
0.979239
0.978112
0.978136
0.979918
0.978316
0.979203
0.981926
0.982021
0.979981
0.980275
0.979281
0.980257
0.978779
0.980182
0.983984
0.98374
0.980243
0.981812
0.981729
0.985606
0.985068
0.983481
0.984513
0.983574
0.984199
0.98321
0.985677
0.987208
0.981094
0.979506
0.980446
0.979833
0.979448
0.979401
0.979114
0.978651
0.977189
0.981776
0.983122
0.983334
0.980661
0.981565
0.98307
0.983437
0.984003
0.980071
0.98003
0.979654
0.979259
0.977916
0.977824
0.976909
0.977166
0.976701
0.976917
0.977686
0.977808
0.979797
0.980487
0.977074
0.978429
0.98079
0.977666
0.977503
0.976475
0.977632
0.980949
0.981968
0.984173
0.984845
0.985358
0.985284
0.986306
0.985629
0.976754
0.976992
0.97818
0.987666
0.988778
0.989402
0.987032
0.986901
0.986715
0.988616
0.987755
0.988266
0.987499
0.987047
0.986371
0.98825
0.98917
0.991409
0.994282
0.996474
0.99662
0.995701
0.993544
0.991092
0.990671
0.989263
0.989137
0.988295
0.984079
0.986324
0.98704
0.986008
0.987207
0.995899
0.992451
0.995574
0.994587
0.986772
0.991109
0.99364
0.993006
0.985929
0.982014
0.982895
0.982236
0.981299
0.983011
0.981128
0.985137
0.991586
0.993027
1.00003
0.999211
1.0006
1.00184
1
1.00058
1.00079
1.00279
1.00333
1.0048
1.00335
0.999967
1.00155
1.00294
1.00599
1.00597
1.00205
1.00319
1.00038
1.00351
1.0035
0.990454
0.980489
0.980423
0.98009
0.985383
0.984177
0.985921
0.986764
0.984592
0.984768
0.990597
0.991351
0.990278
0.988989
0.990774
0.992251
0.991726
0.992027
0.994947
0.986675
0.986708
0.985214
0.987821
0.989794
0.990867
0.99334
0.996839
0.994247
0.996362
0.995901
0.99666
0.997993
0.979994
0.977664
0.978329
0.977141
0.977259
0.980431
0.980028
0.978136
0.979531
0.979575
0.978362
0.978615
0.980077
0.978553
0.979638
0.979248
0.977443
0.977013
0.978251
0.97682
0.976801
0.977174
0.975906
0.977344
0.976973
0.977804
0.979619
0.979645
0.979315
0.978993
0.993301
0.995596
0.992427
0.994354
0.995674
0.997656
0.994656
0.993863
0.996269
0.993572
0.989057
0.989768
0.989262
0.990828
0.991806
0.990036
0.988838
0.990225
0.991498
0.993084
0.992507
0.989091
0.989418
0.99001
0.99212
0.991205
0.992895
0.993049
1.00274
1.00178
1.00363
1.00611
1.0071
1.00492
1.00272
1.00103
1.00027
0.998826
1.00128
1.00102
0.998239
1.00216
1.00313
1.00087
1.00131
1.00296
0.998143
0.999903
1.0019
1.0032
1.00022
0.998973
0.999272
1.00028
0.997395
1.00505
1.00363
1.00621
0.999855
0.998769
0.998683
0.999823
0.999619
0.99865
0.999562
0.9995
0.998631
0.997973
0.998311
1.00068
0.999575
0.99759
0.984473
0.983149
0.983349
0.983946
0.982151
0.982772
0.982845
0.981947
0.984837
0.986113
0.986713
0.985111
0.981341
0.980939
0.9802
0.979596
0.979341
0.978555
0.979143
0.978969
0.977777
0.979834
0.978578
0.979278
0.981519
0.982098
0.980278
0.979859
0.980386
0.978438
0.979106
0.980012
0.978651
0.97985
0.983817
0.981131
0.980739
0.982043
0.985746
0.985408
0.984326
0.983394
0.984032
0.983418
0.983798
0.982673
0.98561
0.985713
0.986142
0.987219
0.979918
0.97989
0.978572
0.977758
0.978169
0.976462
0.982512
0.983049
0.982528
0.980544
0.981123
0.981786
0.983449
0.983702
0.983991
0.983957
0.979658
0.979356
0.979297
0.978489
0.977203
0.977569
0.976601
0.976488
0.976172
0.976479
0.977367
0.97711
0.980325
0.979377
0.980738
0.975541
0.977184
0.975901
0.979463
0.976536
0.975718
0.977005
0.977083
0.975792
0.976709
0.977623
0.980462
0.981607
0.983006
0.979808
0.984247
0.98358
0.985133
0.98609
0.986997
0.986308
0.984573
0.986618
0.987693
0.97768
0.976096
0.976522
0.97756
0.978612
0.987476
0.988628
0.986536
0.987191
0.988497
0.988111
0.988435
0.987624
0.98732
0.987278
0.986955
0.986786
0.988396
0.989581
0.98838
0.991828
0.992524
0.992698
0.99533
0.999003
0.996137
0.996624
0.997326
0.994317
0.990784
0.989747
0.992396
0.990174
0.989839
0.988359
0.988016
0.988195
0.987429
0.9844
0.985218
0.986686
0.986464
0.98629
0.987083
0.99614
0.990889
0.99021
0.998129
0.995854
0.996943
0.987708
0.989726
0.993624
0.993868
0.992774
0.985496
0.980703
0.981277
0.982444
0.981521
0.982675
0.982127
0.981914
0.986869
0.992517
0.999752
1.00078
1.00075
1.00135
1.0028
1.00178
1.00225
1.00603
1.00612
1.00624
1.00259
1.0046
1.0097
1.00377
1.00845
1.00219
1.00417
1.0044
1.00479
0.980013
0.979329
0.984139
0.986162
0.98654
0.984317
0.985044
0.985024
0.990574
0.989703
0.990848
0.991381
0.994303
0.99278
0.99342
0.995759
0.988068
0.986227
0.987971
0.985579
0.988933
0.990123
0.989685
0.991202
0.992525
0.993624
0.997141
0.995517
0.998239
0.996344
0.996734
0.997416
0.998639
0.979359
0.977472
0.977438
0.976439
0.977143
0.97953
0.978664
0.979155
0.978518
0.978306
0.978651
0.979666
0.978316
0.978102
0.979284
0.979345
0.979059
0.977408
0.976419
0.976666
0.978033
0.977756
0.976584
0.97633
0.97644
0.977317
0.97542
0.976258
0.976123
0.977504
0.977777
0.976281
0.978135
0.979142
0.978958
0.978801
0.993875
0.994376
0.9963
0.992694
0.995056
0.99422
0.995781
0.996544
0.997402
0.99534
0.99727
0.996132
0.993378
0.98892
0.990273
0.989837
0.989715
0.991617
0.991265
0.989964
0.988581
0.990039
0.990983
0.992023
0.992791
0.994423
0.992755
0.990615
0.992022
0.993392
0.992866
1.00642
1.00395
1.00778
1.00397
1.00656
1.00868
1.01022
1.00661
1.00582
1.00272
1.00158
0.999358
1.00175
1.00077
0.996768
0.999186
1.00209
1.00282
1.00241
1.00554
1.00013
1.00681
1.00669
0.998092
1.0015
1.00475
1.00667
1.00199
0.999606
0.999787
1.00231
1.0075
1.00497
1.00882
1.00151
0.99961
0.998221
1.00074
0.999523
1.0013
0.999675
1.00027
1.0002
0.999463
0.998276
0.998935
1.00121
1.00101
0.983494
0.981241
0.982178
0.982247
0.982265
0.983079
0.982256
0.984593
0.985736
0.985392
0.981068
0.980874
0.98005
0.978928
0.978285
0.978669
0.979152
0.97858
0.977349
0.979905
0.979057
0.978388
0.978832
0.980865
0.981791
0.982289
0.980415
0.979752
0.979965
0.978011
0.978489
0.979243
0.977733
0.97805
0.979947
0.984265
0.982967
0.980878
0.980315
0.98202
0.985841
0.985556
0.984737
0.983906
0.983603
0.984253
0.983992
0.982545
0.982668
0.982672
0.985763
0.984901
0.986008
0.985193
0.986543
0.986121
0.980332
0.979623
0.978467
0.977196
0.977777
0.977454
0.977434
0.976511
0.982129
0.983617
0.980848
0.982199
0.980973
0.983212
0.98336
0.983752
0.984072
0.98422
0.983773
0.984549
0.978765
0.978857
0.977923
0.977599
0.978071
0.97714
0.977463
0.976348
0.975663
0.975842
0.975753
0.975802
0.976617
0.97582
0.977026
0.976738
0.979729
0.980433
0.975492
0.975265
0.976478
0.975991
0.975108
0.978072
0.975091
0.976532
0.976182
0.976826
0.975824
0.976036
0.97638
0.976638
0.97709
0.979909
0.979587
0.978256
0.982848
0.98349
0.978286
0.981377
0.984908
0.987249
0.987443
0.987454
0.984142
0.985374
0.987164
0.986913
0.985668
0.985632
0.985979
0.988236
0.991508
0.977596
0.97575
0.976048
0.976448
0.977868
0.9782
0.988026
0.986204
0.986945
0.988003
0.987772
0.988543
0.987414
0.98803
0.987293
0.987269
0.986036
0.986383
0.989001
0.990188
0.988803
0.988134
0.991348
0.992353
0.993275
0.993814
0.99603
0.996915
0.998338
0.999026
0.996253
0.996634
0.997886
0.997031
0.994898
0.990862
0.992709
0.988096
0.991182
0.993133
0.988705
0.989968
0.98996
0.987856
0.987164
0.986589
0.986231
0.983719
0.984245
0.985986
0.985328
0.98519
0.986357
0.990042
0.992851
0.99973
0.997146
0.999149
0.997542
0.987507
0.991807
0.995139
0.994995
0.993588
0.985896
0.97999
0.979766
0.981779
0.981416
0.982225
0.980458
0.982375
0.98272
0.981142
0.982262
0.981529
0.986738
1.00038
1.00159
1.002
1.00206
1.0035
1.00193
1.00284
1.00828
1.00784
1.00639
1.00341
1.00344
1.00602
1.00488
1.01169
1.0051
1.01065
1.00895
1.00372
1.00543
1.00587
1.00523
0.98582
0.984714
0.984638
0.989061
0.991717
0.99225
0.995393
0.995341
0.99298
0.995831
0.996405
0.986834
0.987803
0.988458
0.98593
0.990292
0.989878
0.991238
0.992123
0.994217
0.994616
0.998258
0.998282
0.998224
0.998706
0.999352
0.977132
0.977191
0.976915
0.976878
0.978127
0.978838
0.97875
0.979153
0.978546
0.977662
0.978065
0.978518
0.97831
0.977652
0.978032
0.975856
0.976576
0.976125
0.977796
0.977395
0.97777
0.976053
0.976107
0.975578
0.976261
0.975802
0.976878
0.975648
0.975811
0.976217
0.976222
0.978055
0.977791
0.977245
0.97648
0.978126
0.994659
0.994238
0.996186
0.992503
0.993097
0.994932
0.993753
0.996848
0.998307
0.997068
0.98943
0.990262
0.989271
0.992109
0.991616
0.991258
0.991748
0.990131
0.990634
0.988542
0.989334
0.9901
0.990867
0.991394
0.992236
0.993545
0.992382
0.99433
0.995105
0.992518
0.99326
1.0054
1.00833
1.00761
1.00311
1.00863
1.0073
1.00886
1.00761
1.0121
1.01282
1.01044
1.00715
1.00703
1.00479
1.00195
1.00097
1.00295
1.00168
1.00177
0.996853
0.999395
0.998714
1.00381
1.00425
1.0051
1.00611
1.00751
1.00358
1.00658
1.00804
1.0104
1.00167
1.00184
1.00257
1.00306
1.00619
1.00773
1.00433
1.00186
0.999722
1.0011
1.00384
1.00821
1.0108
1.00103
1.0016
1.0001
1.00332
1.00151
0.999246
1.00013
0.998731
1.00258
1.00117
0.981138
0.981691
0.981896
0.982447
0.983342
0.98529
0.984931
0.979929
0.978501
0.977825
0.97802
0.978223
0.978716
0.978397
0.979095
0.978876
0.977386
0.97876
0.981245
0.982036
0.982303
0.979963
0.978948
0.979137
0.980536
0.977411
0.978308
0.979555
0.977062
0.977841
0.97879
0.979121
0.98327
0.980576
0.981106
0.982167
0.985827
0.985656
0.984693
0.984595
0.982958
0.984116
0.983218
0.982745
0.981966
0.983063
0.982866
0.986111
0.984547
0.985387
0.98366
0.986189
0.985253
0.986782
0.986534
0.979219
0.977523
0.97651
0.978304
0.977169
0.977826
0.977168
0.977613
0.976941
0.976537
0.983528
0.981072
0.981241
0.980694
0.982932
0.983575
0.984448
0.984537
0.984119
0.984726
0.983319
0.985372
0.978052
0.978311
0.977713
0.977804
0.977842
0.978058
0.977769
0.976217
0.977243
0.977794
0.977132
0.976043
0.975967
0.975177
0.976024
0.97553
0.975719
0.97663
0.976103
0.975402
0.977444
0.97703
0.97951
0.980704
0.975176
0.974977
0.974854
0.975001
0.975857
0.976596
0.978781
0.975362
0.975528
0.976735
0.976423
0.975674
0.975987
0.974758
0.975835
0.976323
0.976279
0.976841
0.97685
0.976303
0.984088
0.980951
0.979946
0.979357
0.982752
0.982858
0.982099
0.980452
0.980096
0.985565
0.987159
0.990063
0.987808
0.990398
0.98495
0.985428
0.986402
0.987324
0.987413
0.986388
0.986884
0.985259
0.985125
0.985128
0.986856
0.987795
0.988819
0.977149
0.976443
0.974414
0.97552
0.976089
0.977372
0.976317
0.977733
0.976359
0.977295
0.977633
0.986617
0.987636
0.988697
0.987877
0.987789
0.986938
0.986838
0.986187
0.986371
0.989571
0.988301
0.990423
0.988621
0.988075
0.987186
0.991577
0.992756
0.993201
0.9967
0.998316
0.996934
0.999099
1.00383
0.995769
0.995984
0.997777
0.998373
0.997433
0.99484
0.992856
0.993984
0.992923
0.988211
0.988397
0.987334
0.993485
0.990675
0.992838
0.997317
0.987267
0.991571
0.988386
0.989545
0.989835
0.987668
0.986144
0.985885
0.986803
0.986263
0.985337
0.982978
0.984501
0.984491
0.985014
0.985127
0.988645
0.988041
0.993272
0.999834
0.999822
1.00116
0.99941
0.997774
0.998587
0.992197
0.995223
0.997888
0.995142
0.993968
0.983601
0.979492
0.97814
0.980437
0.980962
0.981431
0.980972
0.98361
0.982063
0.980975
0.981184
0.981751
0.984844
0.979729
0.989887
1.00184
1.00457
1.00454
1.00435
1.00364
1.00495
1.00846
1.0091
1.0089
1.0086
1.00305
1.00412
1.00781
1.00644
1.01474
1.00569
1.01271
1.01233
1.00918
1.00532
1.00743
1.00626
0.984864
0.985464
0.989528
0.994597
0.992123
0.995083
0.995369
0.995961
0.994741
0.996275
0.996241
0.98648
0.987976
0.990812
0.991068
0.989362
0.990901
0.993168
0.991715
0.994153
0.994227
0.999415
0.998854
0.999088
0.999856
0.976464
0.977049
0.976752
0.977668
0.97837
0.977614
0.977334
0.977602
0.977803
0.976818
0.975155
0.976144
0.975653
0.976177
0.977324
0.977574
0.977304
0.975608
0.975326
0.975097
0.975458
0.976317
0.975993
0.975741
0.975719
0.975499
0.975506
0.977084
0.976101
0.977447
0.977223
0.976791
0.976489
0.99562
0.994462
0.994176
0.994888
0.99653
0.996581
0.992879
0.995882
0.997729
0.998054
0.990859
0.989328
0.992001
0.991684
0.989833
0.990508
0.988181
0.989404
0.989868
0.990651
0.991598
0.992017
0.992614
0.993557
0.993527
0.992985
0.994927
0.993785
1.0066
1.00706
1.01015
1.01179
1.00797
1.00963
1.00475
1.01032
1.00859
1.01002
1.01205
1.01528
1.01695
1.01405
1.00455
1.01043
1.0106
1.00508
1.00307
1.0017
1.00209
1.00025
1.00377
1.00293
1.00001
1.00046
1.00324
0.998966
0.998514
1.00411
1.00646
1.00441
1.00733
1.0048
1.00853
1.00954
1.00455
1.00605
1.00725
1.00888
1.01335
1.00149
1.00329
1.0047
1.00429
1.0029
1.00447
1.00425
1.00924
1.00637
1.00999
1.00452
1.00086
1.00254
1.00352
1.00111
1.00033
1.01068
1.01239
1.01502
1.00164
1.0029
1.00105
1.00037
0.999575
1.00322
1.00217
0.981396
0.984783
0.979165
0.9778
0.978636
0.977663
0.979237
0.978938
0.979141
0.977412
0.977077
0.977556
0.980981
0.981429
0.981342
0.980393
0.978607
0.97916
0.980616
0.98073
0.976946
0.977303
0.979208
0.977144
0.976389
0.977733
0.978266
0.978717
0.979961
0.9806
0.980713
0.981707
0.982545
0.985305
0.985301
0.984412
0.982885
0.983384
0.982951
0.98269
0.982321
0.982629
0.982435
0.98335
0.986716
0.984351
0.984898
0.985346
0.984111
0.986596
0.985831
0.984803
0.984797
0.986267
0.979303
0.976431
0.977123
0.9769
0.977765
0.976283
0.977252
0.978002
0.976366
0.977124
0.980928
0.981613
0.982327
0.980705
0.982525
0.983454
0.984251
0.985225
0.982775
0.983519
0.986221
0.977124
0.977103
0.977426
0.977305
0.976891
0.977463
0.97695
0.977282
0.976808
0.977056
0.976427
0.974619
0.975669
0.975372
0.974986
0.975657
0.976954
0.976352
0.975822
0.975087
0.976988
0.976429
0.977268
0.979466
0.981116
0.974512
0.974134
0.974546
0.975111
0.974803
0.974987
0.975775
0.975711
0.979158
0.978696
0.975053
0.975583
0.975171
0.975229
0.975515
0.976894
0.975434
0.975578
0.977637
0.975812
0.975854
0.975447
0.976144
0.976155
0.976229
0.976472
0.976548
0.976016
0.975831
0.981498
0.982479
0.981354
0.979612
0.980666
0.979769
0.977687
0.982509
0.983134
0.982486
0.982344
0.985865
0.980254
0.979026
0.980155
0.989164
0.986412
0.989543
0.988892
0.98983
0.989436
0.990236
0.990291
0.98543
0.985534
0.984108
0.986573
0.988977
0.987293
0.988574
0.98721
0.988115
0.988211
0.987583
0.987193
0.986093
0.986861
0.985402
0.987087