/*--------------------------------*- C++ -*----------------------------------*\
| =========                 |                                                 |
| \\      /  F ield         | OpenFOAM: The Open Source CFD Toolbox           |
|  \\    /   O peration     | Version:  v2006                                 |
|   \\  /    A nd           | Website:  www.openfoam.com                      |
|    \\/     M anipulation  |                                                 |
\*---------------------------------------------------------------------------*/
FoamFile
{
    version     2.0;
    format      ascii;
    class       volScalarField;
    location    "14.8";
    object      TMean;
}
// * * * * * * * * * * * * * * * * * * * * * * * * * * * * * * * * * * * * * //

dimensions      [0 0 0 1 0 0 0];


internalField   nonuniform List<scalar> 
341797
(
0.989093
0.988935
0.989575
0.988802
0.98867
0.989232
0.989918
0.990211
0.988908
0.988255
0.988176
0.990077
0.988917
0.990398
0.990207
0.989299
0.989617
0.988734
0.987844
0.987926
0.987824
0.988437
0.990105
0.989496
0.9887
0.990864
0.990292
0.990371
0.989732
0.98972
0.988295
0.988582
0.987618
0.987163
0.988046
0.987358
0.989025
0.990449
0.989714
0.98817
0.989218
0.990856
0.991223
0.990763
0.990725
0.989113
0.989858
0.988169
0.987465
0.986912
0.987181
0.987201
0.986664
0.987713
0.986757
0.987238
0.98882
0.991063
0.989167
0.990316
0.989874
0.988235
0.987568
0.988865
0.9913
0.991058
0.991474
0.991321
0.991425
0.990764
0.990904
0.989285
0.989578
0.990556
0.988921
0.987359
0.986955
0.986592
0.986635
0.986226
0.988403
0.987277
0.98624
0.986285
0.986407
0.98957
0.9909
0.989643
0.989004
0.989744
0.990333
0.988007
0.987499
0.98726
0.989083
0.991819
0.991713
0.992255
0.991626
0.990968
0.990284
0.99123
0.989227
0.989284
0.990168
0.990476
0.987795
0.986846
0.985836
0.986545
0.986286
0.986281
0.98619
0.985487
0.988494
0.987852
0.986429
0.985834
0.985564
0.985767
0.989307
0.991524
0.988915
0.990203
0.989534
0.989916
0.989995
0.990984
0.98854
0.987033
0.988207
0.986642
0.986635
0.989255
0.991782
0.992229
0.992284
0.992807
0.991845
0.991897
0.991843
0.991227
0.991264
0.992121
0.988741
0.989061
0.990004
0.990361
0.987517
0.987292
0.986446
0.985556
0.986015
0.986066
0.986159
0.985159
0.98822
0.987384
0.985639
0.985953
0.985248
0.985084
0.98974
0.991221
0.989655
0.989378
0.990744
0.990557
0.990251
0.989499
0.990348
0.990189
0.991193
0.988787
0.987303
0.988195
0.986826
0.987051
0.988906
0.991527
0.992124
0.992611
0.992681
0.993091
0.992291
0.992441
0.992076
0.990939
0.991615
0.991257
0.992692
0.987888
0.988809
0.989604
0.989876
0.991008
0.986924
0.98719
0.985894
0.985202
0.985821
0.985816
0.985862
0.985157
0.985078
0.987842
0.989267
0.987042
0.988141
0.984664
0.985767
0.984813
0.984751
0.984942
0.991033
0.989616
0.990319
0.989179
0.991044
0.990481
0.990292
0.98885
0.990639
0.990322
0.990512
0.990553
0.992
0.98802
0.987212
0.987198
0.985774
0.985862
0.98858
0.989173
0.992173
0.992698
0.993302
0.993284
0.992876
0.99403
0.993059
0.992989
0.992747
0.991753
0.992403
0.991884
0.992847
0.993375
0.988211
0.987221
0.989335
0.989556
0.990396
0.990715
0.986419
0.986633
0.986521
0.985601
0.984655
0.984983
0.985324
0.985034
0.985341
0.984681
0.985081
0.985098
0.987434
0.9886
0.989223
0.986104
0.986595
0.98886
0.984345
0.984232
0.985136
0.984429
0.984837
0.991645
0.990489
0.989153
0.990927
0.988874
0.991585
0.990946
0.990117
0.989057
0.991228
0.990618
0.990966
0.990391
0.992098
0.991996
0.987559
0.986064
0.986567
0.98482
0.984727
0.985665
0.988331
0.989096
0.992006
0.992566
0.993171
0.993779
0.993949
0.993319
0.99436
0.993797
0.993516
0.992622
0.991717
0.993238
0.992809
0.993472
0.993459
0.993759
0.994224
0.987566
0.986809
0.988718
0.989345
0.990089
0.990395
0.985949
0.98621
0.985833
0.985866
0.985273
0.984301
0.984445
0.98467
0.98479
0.984315
0.984906
0.984238
0.984639
0.98726
0.988266
0.989154
0.989852
0.985833
0.985568
0.9868
0.988586
0.984086
0.98473
0.98388
0.983861
0.991337
0.990032
0.988954
0.991074
0.990775
0.990601
0.9892
0.991042
0.991396
0.991418
0.992833
0.99213
0.992377
0.98785
0.985942
0.984666
0.987327
0.986854
0.984261
0.983643
0.985037
0.984954
0.988542
0.988912
0.990155
0.989155
0.991673
0.992435
0.993037
0.993723
0.994178
0.994164
0.993698
0.994687
0.994332
0.994125
0.993138
0.993968
0.993891
0.993905
0.994106
0.994694
0.994758
0.994888
0.988058
0.987192
0.986399
0.988959
0.989942
0.989922
0.990876
0.98581
0.985914
0.985794
0.98585
0.984415
0.98318
0.983913
0.984382
0.984327
0.984641
0.983833
0.98422
0.984107
0.984768
0.986523
0.988317
0.988768
0.990187
0.985424
0.986306
0.986342
0.989101
0.983127
0.984147
0.98284
0.982707
0.991198
0.990112
0.9887
0.991332
0.991226
0.990726
0.989053
0.990495
0.992194
0.992004
0.992628
0.994518
0.992575
0.992947
0.992765
0.988399
0.986266
0.98508
0.98525
0.987003
0.987567
0.987383
0.98655
0.983549
0.982234
0.983391
0.985249
0.988337
0.989682
0.990614
0.988124
0.992334
0.992926
0.993808
0.994314
0.994986
0.994595
0.994639
0.995143
0.995023
0.994609
0.993766
0.994742
0.994673
0.994966
0.993925
0.994792
0.994952
0.995004
0.994906
0.988307
0.986733
0.986017
0.989482
0.989677
0.990345
0.990746
0.98548
0.985495
0.985391
0.985771
0.985073
0.984152
0.983097
0.982692
0.983432
0.983882
0.983495
0.983834
0.984204
0.982838
0.984734
0.987558
0.988661
0.989241
0.990377
0.984963
0.985562
0.985676
0.987952
0.989609
0.98247
0.983445
0.982037
0.982616
0.982012
0.982411
0.991733
0.989403
0.990661
0.991766
0.991294
0.991375
0.988352
0.9915
0.99411
0.992181
0.993772
0.994768
0.99401
0.994151
0.993876
0.993591
0.988103
0.985132
0.986934
0.984914
0.983601
0.986769
0.987122
0.987179
0.987191
0.984365
0.982713
0.982135
0.983526
0.982797
0.988056
0.988988
0.99023
0.990173
0.988077
0.992185
0.992736
0.993639
0.994139
0.994784
0.995593
0.99512
0.995811
0.996106
0.995661
0.99513
0.995323
0.995298
0.99308
0.994499
0.995257
0.995657
0.995581
0.995805
0.995476
0.995307
0.98798
0.986474
0.986122
0.989186
0.989521
0.990188
0.990574
0.984806
0.985009
0.9853
0.984908
0.984423
0.984466
0.983932
0.982558
0.982523
0.9835
0.983372
0.983459
0.982812
0.983976
0.987521
0.988906
0.989321
0.991519
0.985239
0.98579
0.986877
0.988332
0.990772
0.981928
0.981706
0.981672
0.982333
0.982132
0.981651
0.982585
0.991604
0.98919
0.990537
0.991843
0.990969
0.992351
0.988515
0.994356
0.994518
0.992448
0.993334
0.995035
0.995606
0.995159
0.994107
0.994571
0.993872
0.995023
0.995285
0.99457
0.985962
0.984982
0.986221
0.987264
0.984083
0.983421
0.984417
0.987226
0.986223
0.987598
0.98674
0.987649
0.988112
0.983797
0.982467
0.982698
0.982979
0.98202
0.983058
0.982184
0.982452
0.98837
0.988991
0.988816
0.989868
0.991412
0.987107
0.992074
0.992535
0.993369
0.994596
0.9962
0.995146
0.995943
0.996435
0.996709
0.99591
0.996114
0.99604
0.993357
0.994328
0.995603
0.996851
0.99546
0.996976
0.997249
0.996041
0.995482
0.988563
0.985649
0.989321
0.989837
0.990096
0.991279
0.984228
0.98477
0.984822
0.984327
0.984476
0.984335
0.983572
0.982415
0.982275
0.982317
0.982175
0.983547
0.983336
0.983428
0.982495
0.982891
0.983729
0.986944
0.988989
0.990267
0.99245
0.991788
0.984385
0.985347
0.986337
0.985114
0.988167
0.988259
0.990337
0.981611
0.981607
0.981862
0.981382
0.981029
0.981842
0.982311
0.991494
0.989793
0.990494
0.992488
0.991754
0.993917
0.991335
0.989523
0.994843
0.994564
0.993401
0.993112
0.996118
0.995789
0.996568
0.99524
0.993605
0.994628
0.995039
0.994352
0.994673
0.996123
0.985937
0.984974
0.98431
0.986397
0.987123
0.984087
0.982344
0.983787
0.984473
0.986363
0.985986
0.98462
0.986604
0.987077
0.988059
0.982306
0.981958
0.983398
0.982619
0.981022
0.983277
0.981962
0.98069
0.981017
0.983561
0.988287
0.98884
0.988527
0.990232
0.991458
0.989818
0.98745
0.987078
0.992855
0.993264
0.994134
0.995409
0.997123
0.996181
0.996378
0.997394
0.996431
0.997675
0.997264
0.996694
0.997345
0.996666
0.996572
0.994162
0.994235
0.995636
0.997251
0.997436
0.997261
0.997585
0.997471
0.997626
0.997836
0.99582
0.988859
0.985434
0.989849
0.990611
0.991155
0.983546
0.983795
0.984228
0.984512
0.983944
0.984234
0.984026
0.983331
0.982275
0.981729
0.982203
0.983229
0.98289
0.98306
0.982335
0.982637
0.987705
0.988505
0.989522
0.990003
0.99278
0.984092
0.985025
0.985244
0.984771
0.985887
0.988114
0.98929
0.988072
0.990444
0.992751
0.981004
0.980504
0.981633
0.981055
0.980463
0.980766
0.983077
0.981433
0.981817
0.992175
0.989736
0.991286
0.992387
0.991481
0.992981
0.994348
0.990538
0.991261
0.989244
0.99555
0.997785
0.995256
0.994187
0.993808
0.993762
0.994039
0.997949
0.995797
0.996347
0.996787
0.997697
0.99502
0.996548
0.994142
0.99417
0.995212
0.994769
0.995605
0.995497
0.996025
0.996977
0.985764
0.986456
0.985836
0.984268
0.983948
0.986599
0.987597
0.982874
0.982171
0.981557
0.982811
0.983427
0.984281
0.986142
0.98434
0.986216
0.987167
0.98687
0.987239
0.988173
0.982314
0.981389
0.982785
0.982372
0.981547
0.980251
0.982787
0.984019
0.980751
0.981439
0.979907
0.980912
0.980432
0.98489
0.982051
0.988987
0.988605
0.989461
0.990413
0.993681
0.990492
0.98942
0.991116
0.986798
0.987216
0.98655
0.992672
0.9932
0.993829
0.997059
0.997474
0.997969
0.997374
0.997846
0.998365
0.997263
0.998922
0.998338
0.99833
0.993658
0.995163
0.998227
0.998681
0.998209
0.998547
0.998515
0.998425
0.998179
0.996794
0.988532
0.984914
0.989702
0.990574
0.991051
0.983349
0.983539
0.983877
0.984191
0.983861
0.983614
0.983501
0.982912
0.981895
0.981101
0.981759
0.982371
0.982601
0.982777
0.982746
0.983875
0.98216
0.987695
0.988386
0.989265
0.991023
0.992475
0.983773
0.985855
0.985291
0.984152
0.988043
0.986154
0.989105
0.989723
0.990776
0.989375
0.989833
0.991425
0.993618
0.993714
0.993866
0.981332
0.980351
0.980308
0.980012
0.981403
0.980646
0.980777
0.98015
0.979798
0.979671
0.980034
0.982719
0.983208
0.982553
0.981902
0.980628
0.992123
0.989639
0.991246
0.993975
0.991974
0.991462
0.993941
0.993536
0.99437
0.990498
0.991289
0.990778
0.991894
0.988792
0.989422
0.998448
0.998594
0.998407
0.994043
0.995232
0.995434
0.995701
0.994372
0.999122
0.995439
0.997624
0.99624
0.996887
0.997947
0.99575
0.997968
0.994881
0.996023
0.996035
0.995711
0.996591
0.996746
0.986057
0.985348
0.986792
0.98588
0.984219
0.984214
0.987541
0.986221
0.986501
0.988391
0.982798
0.981855
0.981134
0.981636
0.983768
0.982248
0.984711
0.98211
0.982654
0.986166
0.983218
0.986924
0.985715
0.987592
0.987584
0.981907
0.981959
0.980898
0.983067
0.98208
0.980843
0.979876
0.983352
0.982674
0.98358
0.980514
0.980182
0.982462
0.979609
0.980718
0.9801
0.98034
0.980299
0.981236
0.984465
0.981351
0.989792
0.988895
0.987935
0.989503
0.989055
0.990097
0.99311
0.994623
0.992072
0.988619
0.99089
0.989135
0.992199
0.984871
0.986273
0.99251
0.992994
0.993606
0.997429
0.99786
0.999024
0.998459
0.998498
0.998743
0.998317
0.998259
1.00081
1.00041
0.999861
0.993718
0.996947
0.999441
1.00018
1.00067
0.999176
1.00094
0.999062
1.00058
0.998281
0.998306
0.984451
0.99024
0.990491
0.991805
0.982839
0.983488
0.982899
0.983217
0.98337
0.982257
0.981616
0.981083
0.981008
0.982147
0.98209
0.982328
0.982334
0.984076
0.982911
0.98746
0.988467
0.988981
0.993537
0.985079
0.985802
0.984617
0.987729
0.985304
0.988002
0.990181
0.990927
0.989264
0.990498
0.992876
0.991239
0.994941
0.993823
0.994475
0.994897
0.995527
0.98059
0.979713
0.979933
0.97995
0.980807
0.980086
0.980652
0.979031
0.978975
0.979582
0.979025
0.979315
0.982703
0.982269
0.982281
0.98222
0.981634
0.980675
0.991924
0.990485
0.993788
0.992809
0.991721
0.995404
0.993951
0.995036
0.994725
0.994515
0.990663
0.991728
0.990218
0.990765
0.991291
0.993535
0.988975
1.00025
0.998561
1.00019
0.998328
0.998406
0.994444
0.995964
0.997785
0.996324
0.998018
0.995617
1.00188
0.999025
0.998025
0.998983
0.998216
0.997774
0.996704
0.998197
0.998988
0.996219
0.997328
0.998439
0.995521
0.994891
0.996282
0.996803
0.996265
0.997248
0.997558
0.985733
0.985068
0.986731
0.984668
0.9835
0.983826
0.988439
0.987513
0.986137
0.987251
0.983522
0.982271
0.982055
0.980835
0.981026
0.982974
0.982142
0.981822
0.985137
0.981046
0.98233
0.986859
0.983165
0.983936
0.987031
0.985863
0.985407
0.987249
0.98748
0.981613
0.982697
0.981969
0.981145
0.980208
0.981764
0.981722
0.980878
0.979788
0.979855
0.982931
0.982165
0.983407
0.984716
0.981268
0.980026
0.980074
0.981856
0.982668
0.978779
0.979932
0.979249
0.980329
0.97949
0.97981
0.979299
0.98014
0.982531
0.986788
0.981516
0.989764
0.990151
0.988296
0.98933
0.9879
0.989024
0.988518
0.989242
0.990816
0.994261
0.99417
0.995319
0.991601
0.988112
0.989639
0.991806
0.990435
0.989445
0.994584
0.991823
0.985388
0.98373
0.984732
0.98749
0.98599
0.992998
0.993525
0.994262
0.998697
0.998025
0.999378
0.999374
0.999843
0.999096
0.999052
0.998917
0.999861
1.00127
1.00101
1.00171
1.00115
0.998448
1.00099
1.00184
1.00252
1.00201
1.00135
0.999041
1.00192
0.998819
0.984286
0.991247
0.991725
0.982617
0.982567
0.982792
0.983144
0.982939
0.982011
0.981334
0.981657
0.981639
0.98171
0.983624
0.982769
0.988127
0.985406
0.987521
0.98439
0.987337
0.985038
0.985976
0.987695
0.990778
0.990086
0.990634
0.993199
0.987699
0.989901
0.993154
0.992572
0.996727
0.995134
0.993915
0.99609
0.996501
0.998493
0.980122
0.98023
0.979444
0.979483
0.979546
0.982334
0.9796
0.979465
0.980061
0.979302
0.978872
0.978553
0.97895
0.978729
0.979315
0.978553
0.979007
0.982353
0.981994
0.981879
0.981499
0.981229
0.980161
0.992323
0.994977
0.992649
0.995359
0.994359
0.994537
0.997063
0.995536
0.995528
0.994053
0.990225
0.990978
0.991376
0.991422
0.993505
0.990934
0.991356
0.992129
0.991886
0.99323
0.993534
0.988773
1.00151
1.00124
0.999524
1.00224
0.998294
0.999561
0.999156
0.995897
0.995177
0.999197
0.999586
0.995768
0.999091
0.999885
0.996712
1.00374
1.00089
0.999752
0.997188
0.999572
0.999403
0.998728
0.997627
0.998925
0.999386
0.996469
0.998097
0.999061
0.995428
0.996925
0.997608
0.996664
0.997417
0.986029
0.985402
0.984716
0.987124
0.985574
0.984193
0.983792
0.983195
0.983669
0.987875
0.988555
0.98743
0.986044
0.987459
0.983226
0.982745
0.981818
0.982282
0.981722
0.982453
0.979884
0.98153
0.98012
0.983112
0.982446
0.981354
0.984722
0.981524
0.982009
0.982816
0.985639
0.982375
0.983374
0.983913
0.987476
0.986608
0.984663
0.985665
0.985464
0.985707
0.986575
0.988134
0.982601
0.982075
0.980449
0.981486
0.980111
0.97989
0.979128
0.98251
0.983864
0.981859
0.982677
0.984285
0.984905
0.98157
0.981689
0.981134
0.979276
0.979231
0.981832
0.981745
0.982432
0.978791
0.978412
0.978801
0.979125
0.980062
0.981331
0.978582
0.979233
0.981242
0.97964
0.9787
0.979719
0.983285
0.986237
0.986344
0.987989
0.97905
0.980601
0.989239
0.989683
0.990233
0.988773
0.988644
0.987729
0.989328
0.988788
0.988754
0.987872
0.98904
0.989872
0.991542
0.995133
0.99705
0.995629
0.993332
0.99135
0.990489
0.987623
0.988366
0.987679
0.99489
0.990911
0.9896
0.995526
0.990817
0.99449
0.985187
0.985085
0.983865
0.984716
0.986785
0.992941
0.993587
0.994227
0.99942
0.998858
1.00027
1.00014
1.00147
1.00091
1.00068
0.999353
1.00169
1.00165
1.00288
1.00255
1.00033
1.00263
1.00358
1.00353
1.00211
1.00092
1.00302
0.999642
0.991068
0.99146
0.982852
0.982685
0.981766
0.981273
0.981175
0.981273
0.986528
0.987285
0.984783
0.9873
0.985423
0.985857
0.985573
0.988451
0.990661
0.992175
0.990334
0.989897
0.992701
0.992594
0.994388
0.988122
0.98719
0.989702
0.992388
0.996325
0.998034
0.995536
0.996128
0.996718
0.998093
0.981155
0.979996
0.979138
0.979064
0.978786
0.978588
0.98175
0.980728
0.978725
0.980883
0.979969
0.980201
0.979292
0.980525
0.978541
0.977949
0.978369
0.978165
0.978441
0.97942
0.978025
0.97838
0.981502
0.98118
0.981149
0.980905
0.97938
0.99236
0.993516
0.995086
0.99375
0.995248
0.997255
0.995965
0.995289
0.996409
0.995149
0.990966
0.990554
0.991666
0.992471
0.991007
0.991015
0.992797
0.994073
0.993585
0.990658
0.991153
0.991723
0.992565
0.993878
0.994159
1.00157
1.00364
1.00296
1.00303
1.00113
0.999582
0.999506
1.00022
1.0002
1.00103
0.997314
1.00032
1.00056
1.00115
0.997783
0.999883
1.00068
0.998821
1.00013
0.996825
1.00473
1.00226
0.999643
1.00026
0.999035
0.998749
1.00011
0.998595
0.999676
0.999525
1.00026
0.999361
0.996875
0.998538
0.997874
1.00032
0.996174
0.997807
0.997418
0.99833
0.986397
0.984931
0.985215
0.983767
0.984444
0.983525
0.988172
0.986726
0.987092
0.987855
0.986754
0.983507
0.983025
0.981125
0.982394
0.982534
0.981097
0.98193
0.980499
0.979125
0.97933
0.981212
0.97956
0.980467
0.983301
0.983467
0.981438
0.981688
0.980628
0.98153
0.980147
0.981659
0.985559
0.985323
0.981673
0.983256
0.983166
0.987057
0.986557
0.984931
0.985929
0.985056
0.985706
0.98473
0.987108
0.988665
0.981957
0.980296
0.981402
0.98067
0.980211
0.980033
0.979614
0.979441
0.977963
0.982431
0.983748
0.984228
0.981556
0.982361
0.984127
0.984386
0.984861
0.981188
0.981243
0.980724
0.980288
0.978886
0.9789
0.97792
0.978119
0.97771
0.977961
0.978772
0.978946
0.980592
0.981265
0.977991
0.979352
0.981346
0.978759
0.978817
0.977572
0.978881
0.981852
0.982719
0.985582
0.986155
0.986311
0.986356
0.987457
0.986972
0.977905
0.978396
0.979329
0.989118
0.990248
0.990861
0.988522
0.98838
0.988141
0.990127
0.989135
0.989767
0.988899
0.988451
0.987788
0.98965
0.990667
0.992772
0.995395
0.997469
0.997677
0.996842
0.994766
0.99247
0.991883
0.990748
0.990248
0.989641
0.985594
0.987855
0.988462
0.987471
0.988383
0.996908
0.993676
0.996795
0.995828
0.988229
0.992587
0.99481
0.994296
0.987124
0.983513
0.984458
0.983714
0.982866
0.984535
0.982719
0.986583
0.992926
0.994213
1.00076
0.999988
1.00122
1.00235
1.00049
1.00115
1.00139
1.00334
1.00385
1.00544
1.00382
1.00077
1.00231
1.00347
1.00662
1.00655
1.00265
1.00372
1.00106
1.00405
1.004
0.991882
0.981407
0.9812
0.980999
0.986325
0.984972
0.986788
0.987651
0.9854
0.985721
0.991628
0.992362
0.991365
0.989927
0.991929
0.993381
0.992789
0.993137
0.99605
0.98755
0.987593
0.986041
0.988985
0.990767
0.992068
0.994421
0.99772
0.995244
0.99743
0.996927
0.997594
0.998948
0.980704
0.978564
0.979119
0.977966
0.978164
0.981383
0.981003
0.979028
0.980493
0.980299
0.979191
0.979546
0.980973
0.979475
0.980552
0.980173
0.978303
0.977823
0.979165
0.977609
0.977548
0.978089
0.976862
0.978202
0.977759
0.978681
0.980609
0.980588
0.980271
0.979954
0.994406
0.996699
0.993579
0.995533
0.996722
0.998656
0.995758
0.995034
0.997299
0.994725
0.990524
0.991177
0.990582
0.992158
0.993093
0.991361
0.990234
0.991535
0.992804
0.994332
0.993726
0.990583
0.990896
0.991471
0.993423
0.992579
0.994126
0.994299
1.0037
1.00277
1.0044
1.00684
1.00782
1.00565
1.00343
1.00175
1.0011
0.99993
1.00221
1.00187
0.999296
1.00298
1.00398
1.00173
1.00221
1.00381
0.999141
1.00086
1.00277
1.00402
1.00107
0.999866
1.0002
1.00115
0.998395
1.00562
1.0044
1.00692
1.00061
0.999565
0.999544
1.00061
1.00046
0.999441
1.0003
1.00029
0.999478
0.998932
0.999253
1.00143
1.00046
0.998525
0.985936
0.984645
0.984865
0.985426
0.98363
0.984259
0.984391
0.983422
0.986371
0.987626
0.988212
0.986553
0.982788
0.98234
0.981585
0.980935
0.980518
0.97989
0.980328
0.98005
0.978936
0.981184
0.979829
0.980602
0.982964
0.983532
0.981856
0.981244
0.981806
0.979752
0.9805
0.981535
0.980131
0.981306
0.985318
0.982606
0.982191
0.983493
0.98719
0.986877
0.985846
0.984819
0.985493
0.98492
0.985321
0.984214
0.987086
0.987177
0.987582
0.988713
0.980946
0.980615
0.979328
0.978259
0.97904
0.977438
0.983172
0.983731
0.983566
0.981324
0.982181
0.982815
0.984078
0.984398
0.984629
0.984744
0.980792
0.980355
0.980278
0.979417
0.978186
0.978809
0.977574
0.977492
0.977192
0.977607
0.978492
0.978373
0.981049
0.980214
0.981617
0.976593
0.978221
0.976891
0.979788
0.977167
0.976863
0.977938
0.978581
0.976984
0.977971
0.978845
0.981355
0.982935
0.983714
0.980897
0.985626
0.984717
0.986253
0.986254
0.987576
0.987179
0.985783
0.987632
0.988974
0.978954
0.977584
0.977774
0.978534
0.980005
0.988964
0.990154
0.988029
0.988689
0.989977
0.989586
0.98981
0.989122
0.988722
0.988789
0.988391
0.988297
0.989801
0.990961
0.989887
0.993105
0.993789
0.993965
0.996431
0.99992
0.99722
0.99775
0.998443
0.995528
0.992187
0.991161
0.9935
0.991262
0.991324
0.989883
0.989409
0.989443
0.988818
0.985929
0.986713
0.988181
0.987862
0.987673
0.988315
0.997123
0.992008
0.991461
0.999177
0.997077
0.997973
0.989258
0.99108
0.994773
0.995092
0.993999
0.986706
0.982218
0.982783
0.983927
0.982984
0.984076
0.983598
0.983411
0.988321
0.993816
1.00051
1.00148
1.00142
1.00181
1.00331
1.00232
1.00278
1.00666
1.00674
1.00679
1.00338
1.00518
1.01022
1.00435
1.00895
1.00281
1.00468
1.0049
1.00532
0.980891
0.980275
0.984875
0.986995
0.987298
0.985091
0.985893
0.985861
0.991605
0.990624
0.992011
0.992552
0.995347
0.993805
0.994483
0.996904
0.988927
0.987096
0.988874
0.986423
0.989877
0.991201
0.990768
0.992322
0.993608
0.994771
0.998079
0.996517
0.999199
0.997393
0.997717
0.998367
0.999551
0.980061
0.978345
0.978218
0.977355
0.978061
0.980557
0.97955
0.979853
0.97929
0.979181
0.979554
0.980507
0.979054
0.978964
0.980284
0.980316
0.97991
0.978259
0.977272
0.977523
0.978955
0.978664
0.977429
0.977196
0.977411
0.97803
0.976455
0.977131
0.977092
0.978396
0.978578
0.977115
0.97901
0.980009
0.979879
0.979681
0.995077
0.995521
0.997334
0.993937
0.996177
0.995401
0.996864
0.997567
0.998445
0.996434
0.998263
0.997191
0.994563
0.990377
0.991671
0.99124
0.991084
0.992921
0.992588
0.991349
0.989986
0.991369
0.992265
0.993297
0.994023
0.995625
0.993966
0.992052
0.993316
0.99461
0.994103
1.00722
1.00481
1.00863
1.00477
1.00722
1.00935
1.01094
1.00733
1.00653
1.00344
1.00238
1.0004
1.00263
1.00168
0.997806
1.00014
1.00282
1.0036
1.00327
1.00634
1.00111
1.00763
1.00737
0.999093
1.00244
1.00555
1.00738
1.00287
1.00048
1.00066
1.0031
1.0081
1.00574
1.00949
1.00231
1.00036
0.999205
1.00149
1.00034
1.00211
1.00046
1.00101
1.00097
1.00029
0.999186
0.999878
1.002
1.00184
0.985016
0.98272
0.983657
0.983836
0.983818
0.984613
0.983705
0.986119
0.98725
0.986911
0.982515
0.982311
0.981446
0.980319
0.979566
0.979885
0.980293
0.97975
0.978547
0.981267
0.980449
0.979688
0.980188
0.98226
0.983247
0.983816
0.981889
0.981214
0.98145
0.979449
0.979975
0.980705
0.979302
0.97962
0.981618
0.985794
0.984469
0.98244
0.981764
0.983477
0.987358
0.987019
0.986286
0.985447
0.985164
0.985792
0.985566
0.984023
0.984211
0.984225
0.987251
0.986386
0.987461
0.986708
0.987956
0.987586
0.981205
0.980265
0.979145
0.97758
0.9786
0.978646
0.977754
0.977561
0.982947
0.984239
0.981735
0.982999
0.982057
0.983835
0.983983
0.984679
0.984767
0.984971
0.984347
0.985402
0.979844
0.979765
0.978811
0.978508
0.979385
0.978156
0.978453
0.977316
0.976709
0.976862
0.976867
0.977003
0.977786
0.976939
0.978238
0.978018
0.980595
0.981191
0.976719
0.97634
0.977498
0.977188
0.975947
0.979198
0.975993
0.977535
0.977356
0.978149
0.97761
0.977212
0.97757
0.977872
0.978487
0.981269
0.980808
0.979238
0.983936
0.984152
0.97867
0.982573
0.985779
0.986856
0.988253
0.988472
0.985112
0.986326
0.987992
0.98742
0.986876
0.986675
0.986955
0.989189
0.992597
0.978692
0.977336
0.977427
0.977701
0.979359
0.979801
0.989569
0.987692
0.988452
0.989515
0.989261
0.989991
0.988913
0.989461
0.988788
0.988752
0.987501
0.987884
0.990403
0.991562
0.990226
0.989555
0.992681
0.993624
0.994559
0.995087
0.997063
0.997961
0.999367
1
0.997338
0.997744
0.998958
0.99817
0.996129
0.992296
0.994037
0.989606
0.992523
0.994338
0.989867
0.991409
0.991448
0.989341
0.98865
0.988003
0.98762
0.985253
0.98577
0.987464
0.986727
0.98654
0.987554
0.99117
0.993998
1.00075
0.998294
1.00021
0.998536
0.988816
0.993027
0.996137
0.996086
0.994779
0.987077
0.981544
0.9814
0.983263
0.983011
0.983762
0.982063
0.983921
0.984174
0.982648
0.983827
0.982935
0.988017
1.00112
1.0023
1.0026
1.0025
1.00391
1.00246
1.00334
1.00881
1.00834
1.00686
1.00413
1.00416
1.00661
1.00552
1.01221
1.00563
1.01119
1.00945
1.00432
1.0059
1.00637
1.00568
0.986712
0.985605
0.985439
0.98997
0.992879
0.993393
0.996496
0.996431
0.99411
0.996867
0.997502
0.987698
0.988709
0.989381
0.986886
0.991287
0.990983
0.992349
0.993206
0.995358
0.995792
0.999214
0.999291
0.999161
0.999633
1.00027
0.978003
0.977921
0.977791
0.977739
0.979012
0.979555
0.979456
0.980075
0.979206
0.978359
0.978914
0.979534
0.979159
0.978598
0.978837
0.976834
0.977457
0.977235
0.978836
0.978341
0.978761
0.976994
0.976949
0.976394
0.977247
0.976862
0.9776
0.976657
0.976815
0.977004
0.977158
0.97885
0.978639
0.978143
0.977353
0.979031
0.99585
0.99543
0.997258
0.993724
0.994325
0.996057
0.994952
0.997902
0.999318
0.998072
0.99087
0.991656
0.990711
0.99336
0.992906
0.992574
0.993012
0.991516
0.992005
0.990007
0.990722
0.991477
0.992173
0.992674
0.99348
0.994747
0.9936
0.995511
0.996282
0.993792
0.994485
1.00621
1.00917
1.00841
1.00393
1.0095
1.00797
1.00954
1.00813
1.01283
1.01353
1.01117
1.00783
1.00773
1.00542
1.00281
1.00196
1.00383
1.00255
1.00268
0.997923
1.00039
0.999745
1.00446
1.00493
1.00579
1.00687
1.00818
1.0045
1.00745
1.00885
1.01115
1.00255
1.00293
1.00343
1.00398
1.00695
1.00846
1.00512
1.00268
1.00065
1.00194
1.00456
1.00877
1.01149
1.00179
1.0024
1.00085
1.00416
1.00219
1.0001
1.00104
0.999705
1.00328
1.002
0.982628
0.983188
0.983486
0.983987
0.984913
0.986827
0.986456
0.981359
0.979903
0.979208
0.979315
0.97947
0.979881
0.979593
0.980471
0.980319
0.978656
0.980159
0.982703
0.983531
0.983863
0.981457
0.980498
0.980592
0.982037
0.978889
0.979739
0.981078
0.978683
0.979169
0.98041
0.980746
0.984777
0.982112
0.982652
0.983743
0.987366
0.987195
0.986258
0.986157
0.984502
0.985706
0.984808
0.98432
0.983494
0.984591
0.984409
0.98759
0.986079
0.986855
0.98516
0.987689
0.986791
0.988235
0.988004
0.979882
0.978411
0.97715
0.979227
0.978329
0.978556
0.978036
0.978508
0.977726
0.977368
0.984201
0.981828
0.982148
0.981661
0.983488
0.98435
0.985366
0.98544
0.984797
0.985604
0.983955
0.986275
0.979095
0.979256
0.978531
0.978572
0.979188
0.979263
0.978897
0.977281
0.978239
0.978842
0.97817
0.977137
0.977005
0.976226
0.977129
0.976738
0.976897
0.977825
0.977239
0.976524
0.978803
0.978432
0.980406
0.981407
0.976291
0.975885
0.97584
0.976023
0.977143
0.976985
0.979752
0.976251
0.976452
0.977491
0.977888
0.976925
0.977394
0.977114
0.976976
0.977523
0.977461
0.978171
0.978217
0.977744
0.985179
0.982004
0.98133
0.980605
0.98374
0.983543
0.982845
0.98115
0.981046
0.986925
0.988035
0.990065
0.988718
0.991319
0.986007
0.986085
0.987129
0.98815
0.988252
0.987087
0.987286
0.986284
0.986087
0.986193
0.987732
0.988697
0.989799
0.978104
0.977574
0.975597
0.976947
0.977659
0.978461
0.977513
0.979391
0.977714
0.978794
0.979194
0.988151
0.989102
0.990166
0.989343
0.989224
0.988456
0.988375
0.987684
0.98789
0.990956
0.989738
0.991774
0.990065
0.989507
0.988576
0.992901
0.994019
0.994462
0.997904
0.999291
0.998172
1.00018
1.00467
0.996931
0.997114
0.998815
0.99942
0.998538
0.996002
0.994155
0.995281
0.994165
0.989739
0.989958
0.988739
0.994784
0.992086
0.994206
0.99836
0.988468
0.992959
0.989888
0.991007
0.99129
0.988962
0.987658
0.987321
0.98818
0.987677
0.986785
0.98455
0.986024
0.986002
0.986494
0.986513
0.990043
0.989226
0.994274
1.00078
1.00095
1.00226
1.00027
0.998784
0.999643
0.993206
0.99631
0.998864
0.996108
0.995039
0.984921
0.981007
0.979828
0.982001
0.982436
0.983049
0.982539
0.98513
0.983619
0.982569
0.982682
0.983266
0.985978
0.981172
0.990764
1.00256
1.00517
1.00508
1.00476
1.00413
1.00538
1.00896
1.00961
1.0094
1.0091
1.00369
1.00485
1.00835
1.00707
1.01536
1.00622
1.0132
1.01283
1.0097
1.00587
1.00791
1.00667
0.985785
0.986521
0.990451
0.995696
0.993236
0.996203
0.996557
0.997002
0.995833
0.997339
0.997336
0.987354
0.988888
0.991816
0.992111
0.990488
0.991939
0.994248
0.992781
0.995253
0.995323
1.00031
0.999921
1
1.00072
0.977334
0.977882
0.977595
0.978548
0.978961
0.978274
0.978014
0.97849
0.978652
0.977775
0.976198
0.97702
0.976581
0.977073
0.978228
0.978421
0.978311
0.976586
0.97625
0.976017
0.976596
0.977151
0.976944
0.976529
0.97666
0.976343
0.97627
0.977916
0.977008
0.978341
0.978219
0.977651
0.97731
0.996756
0.995643
0.995353
0.996129
0.997621
0.997693
0.994104
0.997003
0.998732
0.999026
0.992213
0.990738
0.993266
0.992981
0.991247
0.991857
0.98964
0.990838
0.991256
0.991989
0.992913
0.993346
0.9939
0.994776
0.994761
0.994228
0.996086
0.99501
1.00746
1.00791
1.01103
1.01256
1.00877
1.01036
1.00555
1.01119
1.00919
1.01062
1.01278
1.01608
1.0178
1.01476
1.00524
1.0111
1.0113
1.0057
1.00391
1.00259
1.00305
1.00129
1.00467
1.00384
1.00103
1.00143
1.00415
0.999991
0.999567
1.00475
1.00709
1.00518
1.00799
1.00558
1.00928
1.01028
1.00549
1.00695
1.00816
1.00968
1.01413
1.00237
1.00418
1.0054
1.00511
1.0038
1.0053
1.00518
1.00992
1.00715
1.01074
1.00535
1.00163
1.00333
1.0043
1.002
1.00123
1.01125
1.01316
1.01558
1.00245
1.00369
1.00188
1.00122
1.00052
1.00388
1.00293
0.98304
0.986342
0.980661
0.979172
0.980064
0.979063
0.980709
0.980351
0.980633
0.978871
0.97844
0.978924
0.982551
0.982918
0.982849
0.981896
0.980041
0.980699
0.982119
0.982255
0.978395
0.97872
0.98074
0.978482
0.977994
0.979279
0.979784
0.980379
0.981492
0.982164
0.982241
0.983375
0.984162
0.986874
0.986842
0.986001
0.984484
0.984981
0.984557
0.984253
0.983869
0.984209
0.983989
0.984885
0.988208
0.985873
0.986387
0.986848
0.985619
0.98808
0.987305
0.986404
0.986343
0.9877
0.979902
0.977118
0.978114
0.977828
0.978423
0.976844
0.978035
0.978941
0.977086
0.977724
0.981613
0.982578
0.983018
0.981554
0.983355
0.984119
0.984981
0.98608
0.983598
0.98444
0.986931
0.977977
0.978404
0.978638
0.978483
0.978059
0.9785
0.977893
0.978391
0.977823
0.978244
0.97748
0.975532
0.976784
0.976481
0.976049
0.976818
0.978286
0.977568
0.977034
0.976188
0.978319
0.977784
0.97868
0.980376
0.98199
0.975441
0.974896
0.975388
0.976125
0.975811
0.975985
0.976898
0.976647
0.978947
0.979246
0.975971
0.976527
0.976169
0.976094
0.976225
0.97743
0.976573
0.976791
0.97792
0.976436
0.977067
0.976578
0.97753
0.97753
0.977481
0.977772
0.977895
0.977357
0.977358
0.982502
0.983302
0.98234
0.980566
0.981836
0.980699
0.978982
0.983222
0.984452
0.983412
0.982859
0.986176
0.980649
0.980204
0.981101
0.989789
0.987243
0.989664
0.989111
0.990781
0.990278
0.991338
0.991119
0.986584
0.986069
0.984969
0.987444
0.989587
0.988248
0.989576
0.988246
0.988978
0.988958
0.98843
0.98849
0.987059
0.987685
0.986377
0.988219
0.988088
0.989237
0.976828
0.976562
0.977105
0.976189