/*--------------------------------*- C++ -*----------------------------------*\
| =========                 |                                                 |
| \\      /  F ield         | OpenFOAM: The Open Source CFD Toolbox           |
|  \\    /   O peration     | Version:  v2006                                 |
|   \\  /    A nd           | Website:  www.openfoam.com                      |
|    \\/     M anipulation  |                                                 |
\*---------------------------------------------------------------------------*/
FoamFile
{
    version     2.0;
    format      ascii;
    class       volScalarField;
    location    "185";
    object      alphat;
}
// * * * * * * * * * * * * * * * * * * * * * * * * * * * * * * * * * * * * * //

dimensions      [1 -1 -1 0 0 0 0];


internalField   nonuniform List<scalar> 
93840
(
3.61367e-08
3.59423e-08
3.21192e-08
3.82823e-08
4.03699e-08
5.37605e-08
6.45292e-08
6.44588e-08
3.45311e-08
4.03438e-08
1.3058e-07
1.93369e-07
2.09932e-07
3.07432e-08
7.03605e-09
3.64704e-08
9.84465e-08
1.66569e-07
1.62454e-06
9.06685e-06
2.79695e-05
5.20801e-05
5.42856e-05
5.08475e-05
4.53492e-05
3.74705e-05
2.93963e-05
2.39694e-05
1.93244e-05
1.69338e-05
1.44708e-05
1.31784e-05
1.31656e-05
1.27962e-05
1.27834e-05
1.27367e-05
1.25593e-05
1.25994e-05
1.2395e-05
1.24494e-05
1.2263e-05
1.23134e-05
1.21418e-05
1.21801e-05
1.20189e-05
1.20406e-05
1.18914e-05
1.1914e-05
1.17741e-05
1.17856e-05
1.1657e-05
1.16665e-05
1.15286e-05
1.15182e-05
1.14297e-05
1.1473e-05
1.13791e-05
1.13652e-05
1.12285e-05
1.12208e-05
1.11591e-05
1.114e-05
1.10467e-05
1.10638e-05
1.10061e-05
1.10045e-05
1.09653e-05
1.09858e-05
1.09393e-05
1.09516e-05
1.09289e-05
1.09421e-05
1.09279e-05
1.09591e-05
1.09469e-05
1.09756e-05
1.0977e-05
1.10041e-05
1.10246e-05
1.10604e-05
1.10726e-05
1.1106e-05
1.11288e-05
1.11834e-05
1.12271e-05
1.12767e-05
1.13255e-05
1.13761e-05
1.14203e-05
1.14758e-05
1.15502e-05
1.16351e-05
1.17154e-05
1.18069e-05
1.18993e-05
1.20051e-05
1.21071e-05
1.22121e-05
1.23215e-05
1.24425e-05
1.25649e-05
1.26809e-05
1.28046e-05
1.30529e-05
1.32942e-05
1.33426e-05
1.33824e-05
1.35623e-05
1.37545e-05
1.39431e-05
1.41288e-05
1.43137e-05
1.44947e-05
1.47101e-05
1.49009e-05
1.50934e-05
1.52741e-05
1.54847e-05
1.56628e-05
1.58481e-05
1.60072e-05
1.61851e-05
1.63016e-05
1.64428e-05
1.65165e-05
1.65718e-05
1.66823e-05
1.66616e-05
1.67664e-05
1.67843e-05
1.67985e-05
1.68355e-05
1.68347e-05
1.68967e-05
1.69195e-05
1.6945e-05
1.6952e-05
1.69919e-05
1.70174e-05
1.7068e-05
1.71093e-05
1.71307e-05
1.71556e-05
1.71824e-05
1.72173e-05
1.72452e-05
1.7288e-05
1.73001e-05
1.73193e-05
1.73103e-05
1.73267e-05
1.73118e-05
1.7306e-05
1.72779e-05
1.72592e-05
1.72001e-05
1.71495e-05
1.70661e-05
1.69922e-05
1.68862e-05
1.68057e-05
1.66811e-05
1.65468e-05
1.63462e-05
1.61043e-05
1.58332e-05
1.5579e-05
1.52441e-05
1.47568e-05
1.38956e-05
1.26709e-05
1.15927e-05
1.11593e-05
9.77389e-06
5.04535e-06
1.1911e-13
2.4153e-06
4.81836e-06
3.57268e-06
8.04935e-07
1.60447e-06
2.79541e-08
3.76508e-09
3.91373e-06
5.32707e-06
4.5779e-06
2.72535e-08
3.06052e-06
1.47106e-05
1.30949e-05
5.23842e-06
8.58533e-06
1.4748e-05
1.76451e-05
1.77301e-05
1.80349e-05
1.80483e-05
1.84662e-05
1.84843e-05
1.84766e-05
1.8358e-05
1.82977e-05
1.82312e-05
1.81339e-05
1.80308e-05
1.79532e-05
1.78487e-05
1.77719e-05
1.76616e-05
1.7561e-05
1.74475e-05
1.73356e-05
1.72265e-05
1.71192e-05
1.70034e-05
1.69072e-05
1.67795e-05
1.66748e-05
1.65411e-05
1.64394e-05
1.6322e-05
1.62305e-05
1.61182e-05
1.60306e-05
1.59064e-05
1.58233e-05
1.56952e-05
1.56344e-05
1.5511e-05
1.54321e-05
1.53164e-05
1.52543e-05
1.51438e-05
1.51062e-05
1.50024e-05
1.49612e-05
1.4854e-05
1.48038e-05
1.4703e-05
1.46887e-05
1.45817e-05
1.45623e-05
1.44581e-05
1.44326e-05
1.43301e-05
1.43087e-05
1.41786e-05
1.41732e-05
1.40567e-05
1.40068e-05
1.39454e-05
1.38853e-05
1.38348e-05
1.37463e-05
1.37503e-05
1.35882e-05
1.36715e-05
1.34285e-05
1.36607e-05
1.32952e-05
1.21548e-05
9.31629e-06
8.50366e-06
8.69876e-06
8.95116e-06
9.11384e-06
9.21353e-06
9.26992e-06
9.19896e-06
9.17946e-06
9.31805e-06
9.40732e-06
9.32633e-06
9.21275e-06
9.23154e-06
9.27733e-06
9.23813e-06
9.13906e-06
9.06013e-06
8.99287e-06
8.91328e-06
8.82816e-06
8.73071e-06
8.63227e-06
8.51969e-06
8.41236e-06
8.30565e-06
8.2011e-06
8.09062e-06
7.97636e-06
7.86292e-06
7.74443e-06
7.62843e-06
7.50655e-06
7.39236e-06
7.26305e-06
7.15165e-06
7.01712e-06
6.90824e-06
6.77005e-06
6.67228e-06
6.53102e-06
6.43843e-06
6.28034e-06
6.18773e-06
6.02256e-06
5.95199e-06
5.78599e-06
5.73031e-06
5.55638e-06
5.51106e-06
5.32519e-06
5.30109e-06
5.11199e-06
5.11272e-06
4.91407e-06
4.92964e-06
4.71138e-06
4.74149e-06
4.5135e-06
4.5718e-06
4.33806e-06
4.42369e-06
4.17632e-06
4.28421e-06
4.02127e-06
4.15901e-06
3.88926e-06
4.06034e-06
3.79868e-06
4.01589e-06
3.76739e-06
4.15856e-06
3.76322e-06
4.96379e-06
3.80789e-06
7.68353e-06
1.1902e-05
1.68213e-05
1.9877e-05
2.39181e-05
2.74033e-05
3.30504e-05
4.15599e-05
4.87318e-05
5.37229e-05
5.54243e-05
3.29962e-05
1.16734e-05
2.29687e-06
2.53694e-07
1.06795e-07
4.09092e-08
7.03693e-09
2.95267e-08
2.08618e-07
1.91721e-07
1.30788e-07
3.90072e-08
3.2284e-08
6.35879e-08
6.4456e-08
5.35401e-08
4.11815e-08
3.84487e-08
3.18018e-08
3.54395e-08
3.52759e-08
3.50388e-08
3.60837e-08
3.19068e-08
3.85716e-08
4.05494e-08
5.3807e-08
6.41213e-08
6.42945e-08
3.24085e-08
3.88244e-08
1.32901e-07
1.95169e-07
2.12399e-07
3.16899e-08
6.43952e-09
3.1985e-08
8.82196e-08
1.17568e-07
9.91072e-07
6.53355e-06
2.24508e-05
4.73558e-05
5.41034e-05
5.27185e-05
4.96559e-05
4.47888e-05
3.76453e-05
3.23737e-05
2.66047e-05
2.30488e-05
1.99808e-05
1.82326e-05
1.73766e-05
1.73951e-05
1.75842e-05
1.71794e-05
1.76882e-05
1.71096e-05
1.77317e-05
1.70852e-05
1.77294e-05
1.70806e-05
1.7726e-05
1.71052e-05
1.7722e-05
1.71412e-05
1.7707e-05
1.71692e-05
1.769e-05
1.72173e-05
1.76688e-05
1.72523e-05
1.76693e-05
1.72721e-05
1.75999e-05
1.72891e-05
1.76625e-05
1.73711e-05
1.76645e-05
1.73983e-05
1.76557e-05
1.74545e-05
1.76447e-05
1.74526e-05
1.76517e-05
1.75109e-05
1.76551e-05
1.75442e-05
1.76912e-05
1.7595e-05
1.77204e-05
1.76519e-05
1.7748e-05
1.76965e-05
1.7794e-05
1.77488e-05
1.78385e-05
1.78087e-05
1.78894e-05
1.78827e-05
1.79569e-05
1.79488e-05
1.80065e-05
1.80045e-05
1.80639e-05
1.80751e-05
1.81195e-05
1.81416e-05
1.81792e-05
1.81892e-05
1.82159e-05
1.82343e-05
1.82614e-05
1.82717e-05
1.82848e-05
1.82873e-05
1.82926e-05
1.82873e-05
1.82766e-05
1.82587e-05
1.82409e-05
1.82088e-05
1.81548e-05
1.80928e-05
1.80756e-05
1.80781e-05
1.80177e-05
1.79294e-05
1.78534e-05
1.77714e-05
1.76817e-05
1.75931e-05
1.7496e-05
1.73823e-05
1.72661e-05
1.71588e-05
1.70464e-05
1.69163e-05
1.67807e-05
1.66523e-05
1.65193e-05
1.63826e-05
1.62533e-05
1.61366e-05
1.6021e-05
1.59669e-05
1.58101e-05
1.57841e-05
1.56627e-05
1.55788e-05
1.5532e-05
1.54176e-05
1.53852e-05
1.52697e-05
1.52056e-05
1.50893e-05
1.50291e-05
1.4931e-05
1.48546e-05
1.47411e-05
1.46143e-05
1.45015e-05
1.43817e-05
1.42662e-05
1.41162e-05
1.39918e-05
1.38158e-05
1.36542e-05
1.34596e-05
1.32867e-05
1.30688e-05
1.28461e-05
1.25972e-05
1.23311e-05
1.20059e-05
1.16391e-05
1.1244e-05
1.08124e-05
1.03414e-05
9.83805e-06
9.30526e-06
8.70644e-06
7.90777e-06
6.82811e-06
5.91315e-06
5.65332e-06
5.69288e-06
5.26973e-06
4.16621e-06
2.6304e-06
1.6182e-06
1.95775e-06
2.52711e-06
2.06536e-06
1.16618e-06
1.43425e-06
1.86168e-06
1.16448e-06
7.09868e-07
1.00845e-06
9.63248e-08
1.89113e-07
2.88154e-06
3.01492e-06
3.05859e-06
3.27001e-06
2.25743e-06
1.64468e-06
3.57051e-06
3.65086e-06
1.1002e-06
1.4359e-07
3.35356e-06
5.99518e-06
5.62191e-06
4.38461e-06
4.50792e-06
6.05333e-06
7.84549e-06
9.20147e-06
9.69845e-06
1.01328e-05
1.08334e-05
1.15756e-05
1.21112e-05
1.25258e-05
1.28557e-05
1.31898e-05
1.3469e-05
1.37041e-05
1.3907e-05
1.40752e-05
1.41811e-05
1.4312e-05
1.43939e-05
1.45323e-05
1.46268e-05
1.47378e-05
1.47743e-05
1.48155e-05
1.48176e-05
1.48595e-05
1.49261e-05
1.50432e-05
1.51173e-05
1.52369e-05
1.52584e-05
1.53565e-05
1.54263e-05
1.55339e-05
1.55137e-05
1.55249e-05
1.54261e-05
1.54777e-05
1.5423e-05
1.55086e-05
1.5521e-05
1.55716e-05
1.55031e-05
1.55764e-05
1.55123e-05
1.55298e-05
1.54669e-05
1.55254e-05
1.54222e-05
1.55807e-05
1.54461e-05
1.55783e-05
1.55529e-05
1.57517e-05
1.5274e-05
1.5782e-05
1.51884e-05
1.58168e-05
1.50609e-05
1.57459e-05
1.50502e-05
1.55246e-05
1.56567e-05
1.57977e-05
1.68182e-05
1.85942e-05
2.11252e-05
2.29517e-05
2.36032e-05
2.36182e-05
2.34638e-05
2.31934e-05
2.29558e-05
2.28846e-05
2.2743e-05
2.24652e-05
2.2199e-05
2.21063e-05
2.20101e-05
2.18298e-05
2.16153e-05
2.14735e-05
2.136e-05
2.12313e-05
2.11043e-05
2.09753e-05
2.08576e-05
2.07349e-05
2.06157e-05
2.05184e-05
2.03974e-05
2.03029e-05
2.01705e-05
2.00872e-05
1.99479e-05
1.9885e-05
1.9726e-05
1.96964e-05
1.95159e-05
1.95103e-05
1.93016e-05
1.93352e-05
1.90908e-05
1.91757e-05
1.88943e-05
1.90202e-05
1.86789e-05
1.88492e-05
1.84733e-05
1.87188e-05
1.82977e-05
1.8601e-05
1.81124e-05
1.8474e-05
1.79261e-05
1.83562e-05
1.77661e-05
1.82713e-05
1.76233e-05
1.817e-05
1.74621e-05
1.8056e-05
1.73072e-05
1.7987e-05
1.71988e-05
1.79409e-05
1.70963e-05
1.78718e-05
1.69888e-05
1.7816e-05
1.69082e-05
1.77775e-05
1.68806e-05
1.76958e-05
1.69792e-05
1.74254e-05
1.72633e-05
1.74158e-05
1.69093e-05
1.80698e-05
1.90845e-05
2.31689e-05
2.85449e-05
3.22759e-05
3.69678e-05
3.81377e-05
3.94257e-05
4.16757e-05
4.71418e-05
5.23061e-05
5.81702e-05
3.86518e-05
1.51581e-05
3.24499e-06
4.1894e-07
1.23684e-07
4.65181e-08
7.8434e-09
2.83464e-08
2.04866e-07
1.8967e-07
1.29509e-07
4.05305e-08
3.41279e-08
6.42211e-08
6.4104e-08
5.31628e-08
4.11147e-08
3.88755e-08
3.22508e-08
3.51503e-08
3.64527e-08
3.57668e-08
3.62861e-08
3.21941e-08
3.88408e-08
3.97947e-08
5.39146e-08
6.4475e-08
6.52632e-08
3.49645e-08
4.01916e-08
1.3428e-07
1.94845e-07
2.15038e-07
3.3122e-08
6.45205e-09
2.86622e-08
8.15395e-08
8.68993e-08
5.38831e-07
4.57538e-06
1.71258e-05
4.13183e-05
5.22967e-05
5.30546e-05
5.12857e-05
4.92319e-05
4.41909e-05
4.11766e-05
3.70602e-05
3.44762e-05
3.209e-05
3.10179e-05
2.92105e-05
2.99856e-05
2.91423e-05
2.94883e-05
2.91774e-05
2.93018e-05
2.92052e-05
2.92175e-05
2.9221e-05
2.91718e-05
2.92502e-05
2.91522e-05
2.92873e-05
2.91374e-05
2.93109e-05
2.91266e-05
2.93301e-05
2.91301e-05
2.93437e-05
2.9118e-05
2.93515e-05
2.90836e-05
2.93143e-05
2.91129e-05
2.94246e-05
2.91627e-05
2.93789e-05
2.91338e-05
2.93589e-05
2.91288e-05
2.92882e-05
2.90708e-05
2.92619e-05
2.90705e-05
2.92203e-05
2.90532e-05
2.91997e-05
2.90377e-05
2.91623e-05
2.90167e-05
2.91084e-05
2.89792e-05
2.90634e-05
2.89282e-05
2.90035e-05
2.88784e-05
2.89398e-05
2.88365e-05
2.8866e-05
2.87445e-05
2.87422e-05
2.86256e-05
2.8616e-05
2.85015e-05
2.84585e-05
2.83418e-05
2.82583e-05
2.81095e-05
2.79999e-05
2.7857e-05
2.7728e-05
2.75541e-05
2.7392e-05
2.71945e-05
2.70063e-05
2.67766e-05
2.65448e-05
2.62865e-05
2.60288e-05
2.57351e-05
2.54194e-05
2.50982e-05
2.4866e-05
2.46237e-05
2.42666e-05
2.38674e-05
2.34869e-05
2.30866e-05
2.2681e-05
2.22721e-05
2.18498e-05
2.13964e-05
2.09557e-05
2.05259e-05
2.00981e-05
1.96354e-05
1.91953e-05
1.8772e-05
1.83767e-05
1.79648e-05
1.76169e-05
1.72683e-05
1.69697e-05
1.67058e-05
1.63545e-05
1.61781e-05
1.58406e-05
1.56423e-05
1.53871e-05
1.51048e-05
1.48842e-05
1.45713e-05
1.43249e-05
1.40097e-05
1.3753e-05
1.3438e-05
1.31411e-05
1.27761e-05
1.24263e-05
1.2078e-05
1.17225e-05
1.13371e-05
1.09103e-05
1.04961e-05
1.00052e-05
9.49997e-06
8.94052e-06
8.38219e-06
7.74548e-06
7.13354e-06
6.49397e-06
5.88539e-06
5.25987e-06
4.79233e-06
4.41082e-06
3.9564e-06
3.32158e-06
2.83748e-06
2.68228e-06
2.69012e-06
2.30964e-06
1.79995e-06
1.79132e-06
1.97943e-06
1.80352e-06
1.85332e-06
1.93703e-06
1.7731e-06
1.7672e-06
1.72374e-06
1.48192e-06
1.65581e-06
1.77465e-06
1.6625e-06
1.51948e-06
1.64819e-06
1.69897e-06
1.14244e-06
6.99388e-07
5.53032e-07
4.05245e-06
3.74849e-06
2.55635e-06
2.15577e-06
2.19237e-06
1.65241e-06
1.45268e-06
1.53086e-06
1.58236e-06
1.1939e-06
1.21758e-06
1.67278e-06
1.72257e-06
1.06636e-06
5.90323e-07
1.36366e-06
2.27805e-06
2.50017e-06
2.28401e-06
2.60963e-06
3.34638e-06
4.0634e-06
4.59863e-06
5.17008e-06
5.77521e-06
6.5147e-06
7.25039e-06
7.93676e-06
8.58358e-06
9.20875e-06
9.73185e-06
1.0307e-05
1.07567e-05
1.1269e-05
1.17164e-05
1.21995e-05
1.25877e-05
1.29228e-05
1.32028e-05
1.35393e-05
1.38629e-05
1.42626e-05
1.45678e-05
1.49861e-05
1.52414e-05
1.55991e-05
1.58734e-05
1.62476e-05
1.64452e-05
1.67083e-05
1.67961e-05
1.70809e-05
1.71435e-05
1.74807e-05
1.76259e-05
1.7922e-05
1.79425e-05
1.82314e-05
1.82251e-05
1.84916e-05
1.84445e-05
1.87325e-05
1.85998e-05
1.90462e-05
1.88305e-05
1.93013e-05
1.91163e-05
1.98352e-05
1.90061e-05
2.01058e-05
1.90508e-05
2.03625e-05
1.90959e-05
2.04487e-05
1.92117e-05
2.03939e-05
1.98825e-05
2.13618e-05
2.18106e-05
2.50645e-05
2.89714e-05
3.27447e-05
3.52949e-05
3.68191e-05
3.78268e-05
3.84361e-05
3.88177e-05
3.93989e-05
3.99365e-05
4.007e-05
3.99273e-05
4.00173e-05
4.0276e-05
4.03691e-05
4.02317e-05
4.01195e-05
4.01007e-05
4.00802e-05
4.00393e-05
3.99805e-05
3.99209e-05
3.98564e-05
3.97729e-05
3.97378e-05
3.96614e-05
3.96266e-05
3.95151e-05
3.94833e-05
3.93474e-05
3.93345e-05
3.91634e-05
3.9184e-05
3.89801e-05
3.90314e-05
3.87825e-05
3.8869e-05
3.85734e-05
3.87128e-05
3.83783e-05
3.85577e-05
3.81462e-05
3.83411e-05
3.78831e-05
3.81525e-05
3.76804e-05
3.80024e-05
3.74791e-05
3.78274e-05
3.7258e-05
3.76442e-05
3.70694e-05
3.7501e-05
3.69122e-05
3.73443e-05
3.67212e-05
3.71467e-05
3.65323e-05
3.69835e-05
3.64077e-05
3.68638e-05
3.62941e-05
3.67301e-05
3.61752e-05
3.66084e-05
3.60732e-05
3.65374e-05
3.59871e-05
3.65576e-05
3.5863e-05
3.66581e-05
3.58013e-05
3.69131e-05
3.47597e-05
3.77468e-05
3.71926e-05
3.76802e-05
4.16816e-05
4.60164e-05
5.14946e-05
5.27419e-05
5.53498e-05
5.21171e-05
5.2518e-05
5.26097e-05
6.0376e-05
4.42417e-05
1.92647e-05
4.44731e-06
6.95358e-07
1.43855e-07
5.22544e-08
7.95507e-09
2.73975e-08
2.02697e-07
1.89135e-07
1.30029e-07
3.8887e-08
3.15028e-08
6.30061e-08
6.45585e-08
5.29017e-08
4.24475e-08
3.85646e-08
3.18116e-08
3.48072e-08
3.55705e-08
3.45527e-08
3.58313e-08
3.21645e-08
3.93753e-08
3.97265e-08
5.40306e-08
6.40399e-08
6.47751e-08
3.31273e-08
3.89567e-08
1.35575e-07
1.96907e-07
2.17383e-07
3.4163e-08
5.99774e-09
2.46335e-08
7.48041e-08
6.97178e-08
2.78764e-07
3.16921e-06
1.28909e-05
3.52146e-05
4.96291e-05
5.26854e-05
5.1938e-05
5.17666e-05
4.79549e-05
4.60531e-05
4.296e-05
4.13625e-05
3.9553e-05
3.88162e-05
3.81654e-05
3.78517e-05
3.76257e-05
3.7521e-05
3.74445e-05
3.74018e-05
3.73907e-05
3.7356e-05
3.73733e-05
3.73329e-05
3.7376e-05
3.7323e-05
3.73879e-05
3.73128e-05
3.73952e-05
3.73038e-05
3.73933e-05
3.72973e-05
3.73906e-05
3.72643e-05
3.73823e-05
3.72281e-05
3.73487e-05
3.72193e-05
3.74142e-05
3.72123e-05
3.73352e-05
3.7151e-05
3.72909e-05
3.7077e-05
3.71821e-05
3.69728e-05
3.70998e-05
3.69064e-05
3.70071e-05
3.68175e-05
3.69091e-05
3.67227e-05
3.67933e-05
3.66117e-05
3.66542e-05
3.64716e-05
3.65013e-05
3.63058e-05
3.63249e-05
3.61298e-05
3.61314e-05
3.59433e-05
3.59031e-05
3.56902e-05
3.56102e-05
3.53928e-05
3.5291e-05
3.50629e-05
3.49163e-05
3.46719e-05
3.44701e-05
3.41865e-05
3.39465e-05
3.36517e-05
3.33744e-05
3.30363e-05
3.27116e-05
3.23336e-05
3.19639e-05
3.15375e-05
3.11108e-05
3.06436e-05
3.01796e-05
2.96733e-05
2.91629e-05
2.86191e-05
2.81385e-05
2.76561e-05
2.70907e-05
2.64554e-05
2.58226e-05
2.51625e-05
2.45042e-05
2.38411e-05
2.31714e-05
2.24553e-05
2.17681e-05
2.10936e-05
2.04364e-05
1.97278e-05
1.90706e-05
1.84387e-05
1.786e-05
1.72457e-05
1.67362e-05
1.62045e-05
1.57615e-05
1.53121e-05
1.4827e-05
1.44791e-05
1.40108e-05
1.36684e-05
1.32205e-05
1.2796e-05
1.23763e-05
1.19263e-05
1.14788e-05
1.10239e-05
1.05602e-05
1.00854e-05
9.54741e-06
8.97596e-06
8.39459e-06
7.84549e-06
7.25486e-06
6.63824e-06
5.96316e-06
5.32321e-06
4.61489e-06
3.93842e-06
3.2966e-06
2.76092e-06
2.27929e-06
1.99969e-06
1.78837e-06
1.65969e-06
1.4898e-06
1.48688e-06
1.44772e-06
1.4151e-06
1.30997e-06
1.27484e-06
1.29595e-06
1.49952e-06
1.50097e-06
1.50941e-06
1.54194e-06
1.49899e-06
1.35995e-06
1.4207e-06
1.29816e-06
1.27961e-06
1.3015e-06
1.27448e-06
1.22748e-06
1.18247e-06
1.04978e-06
1.09093e-06
1.12312e-06
8.67028e-07
1.1308e-06
1.22388e-06
6.01121e-07
1.6273e-06
3.40768e-06
2.77573e-06
2.19244e-06
2.17756e-06
2.01508e-06
2.05741e-06
1.86434e-06
1.68849e-06
1.55812e-06
1.67963e-06
1.44518e-06
1.48678e-06
1.46498e-06
1.34069e-06
1.03084e-06
1.23317e-06
1.37544e-06
1.23302e-06
1.10487e-06
1.2432e-06
1.37968e-06
1.52735e-06
1.64008e-06
1.8192e-06
1.93502e-06
2.25208e-06
2.62819e-06
2.97865e-06
3.392e-06
3.90523e-06
4.32235e-06
4.93424e-06
5.40979e-06
6.02892e-06
6.62828e-06
7.36517e-06
8.04481e-06
8.68454e-06
9.21559e-06
9.86574e-06
1.04662e-05
1.11454e-05
1.16637e-05
1.23572e-05
1.28286e-05
1.3428e-05
1.38741e-05
1.44728e-05
1.48696e-05
1.53937e-05
1.56744e-05
1.62203e-05
1.64426e-05
1.70074e-05
1.72812e-05
1.78166e-05
1.79546e-05
1.84621e-05
1.85176e-05
1.90032e-05
1.89937e-05
1.95398e-05
1.93833e-05
2.01113e-05
1.98355e-05
2.06335e-05
2.03475e-05
2.1408e-05
2.04599e-05
2.18652e-05
2.07559e-05
2.23095e-05
2.09725e-05
2.25209e-05
2.13252e-05
2.26032e-05
2.21567e-05
2.41848e-05
2.53152e-05
2.88883e-05
3.3122e-05
3.76061e-05
4.12431e-05
4.38578e-05
4.58111e-05
4.72435e-05
4.83106e-05
4.94676e-05
5.05419e-05
5.11705e-05
5.14129e-05
5.1806e-05
5.23861e-05
5.28081e-05
5.29368e-05
5.30282e-05
5.32022e-05
5.33805e-05
5.35268e-05
5.36466e-05
5.37441e-05
5.3838e-05
5.38904e-05
5.39996e-05
5.40538e-05
5.41606e-05
5.41665e-05
5.42598e-05
5.42272e-05
5.43258e-05
5.42519e-05
5.43702e-05
5.42586e-05
5.43924e-05
5.42379e-05
5.43819e-05
5.41838e-05
5.43561e-05
5.41324e-05
5.43151e-05
5.40265e-05
5.41812e-05
5.38531e-05
5.4042e-05
5.37329e-05
5.39449e-05
5.36223e-05
5.38185e-05
5.34821e-05
5.36703e-05
5.33652e-05
5.35556e-05
5.32779e-05
5.34299e-05
5.31548e-05
5.32561e-05
5.30194e-05
5.31035e-05
5.29364e-05
5.29966e-05
5.28731e-05
5.28882e-05
5.28083e-05
5.279e-05
5.27686e-05
5.27306e-05
5.27624e-05
5.27205e-05
5.27897e-05
5.27192e-05
5.28616e-05
5.27113e-05
5.24354e-05
5.31806e-05
5.45506e-05
5.52951e-05
5.86021e-05
5.8438e-05
6.31006e-05
6.39899e-05
6.90395e-05
6.45033e-05
6.3349e-05
5.59274e-05
6.27192e-05
4.91712e-05
2.34158e-05
5.79029e-06
1.05126e-06
1.73299e-07
6.04209e-08
8.6748e-09
2.61494e-08
2.00166e-07
1.86443e-07
1.28026e-07
4.05021e-08
3.32446e-08
6.42207e-08
6.40173e-08
5.28558e-08
4.1983e-08
3.8426e-08
3.246e-08
3.50406e-08
3.58726e-08
3.52342e-08
3.60848e-08
3.26865e-08
3.96827e-08
3.91273e-08
5.40404e-08
6.41595e-08
6.58247e-08
3.55874e-08
4.01206e-08
1.36236e-07
1.98544e-07
2.19902e-07
3.59508e-08
6.13482e-09
2.27741e-08
6.9261e-08
5.61494e-08
1.46853e-07
2.08812e-06
9.18593e-06
2.87346e-05
4.5722e-05
5.1528e-05
5.14558e-05
5.3098e-05
5.04088e-05
4.97991e-05
4.77174e-05
4.68381e-05
4.5623e-05
4.51609e-05
4.44252e-05
4.43894e-05
4.39328e-05
4.40134e-05
4.37464e-05
4.3842e-05
4.36904e-05
4.37664e-05
4.36807e-05
4.37272e-05
4.36851e-05
4.37028e-05
4.36952e-05
4.36825e-05
4.36978e-05
4.36665e-05
4.36809e-05
4.36461e-05
4.36662e-05
4.3594e-05
4.36409e-05
4.35565e-05
4.35866e-05
4.34966e-05
4.36015e-05
4.34529e-05
4.34906e-05
4.33547e-05
4.34098e-05
4.32232e-05
4.32609e-05
4.30671e-05
4.31152e-05
4.29298e-05
4.29603e-05
4.27556e-05
4.27749e-05
4.25705e-05
4.2567e-05
4.23532e-05
4.23243e-05
4.2095e-05
4.20467e-05
4.17955e-05
4.17339e-05
4.14716e-05
4.1387e-05
4.11146e-05
4.09832e-05
4.06786e-05
4.05006e-05
4.01768e-05
3.99603e-05
3.96141e-05
3.93433e-05
3.89669e-05
3.8633e-05
3.82103e-05
3.78229e-05
3.73661e-05
3.69256e-05
3.64145e-05
3.59127e-05
3.53453e-05
3.47807e-05
3.41518e-05
3.35221e-05
3.28422e-05
3.21702e-05
3.14559e-05
3.07519e-05
2.99655e-05
2.92156e-05
2.85001e-05
2.77493e-05
2.68855e-05
2.60122e-05
2.51051e-05
2.42154e-05
2.33193e-05
2.243e-05
2.14766e-05
2.05765e-05
1.96899e-05
1.88403e-05
1.79152e-05
1.70853e-05
1.62749e-05
1.555e-05
1.47449e-05
1.41066e-05
1.33893e-05
1.28101e-05
1.21727e-05
1.15756e-05
1.10429e-05
1.04745e-05
9.95523e-06
9.32786e-06
8.73757e-06
8.10313e-06
7.49939e-06
6.85252e-06
6.30547e-06
5.66709e-06
5.09732e-06
4.39919e-06
3.86993e-06
3.42612e-06
3.0977e-06
2.62713e-06
2.22564e-06
1.81956e-06
1.54219e-06
1.14638e-06
9.60751e-07
8.5764e-07
8.60113e-07
8.34501e-07
9.81684e-07
1.06191e-06
1.21168e-06
1.19216e-06
1.31205e-06
1.33822e-06
1.41888e-06
1.36143e-06
1.3958e-06
1.43768e-06
1.59778e-06
1.58594e-06
1.6051e-06
1.52001e-06
1.53589e-06
1.557e-06
1.63844e-06
1.57509e-06
1.53681e-06
1.41173e-06
1.33504e-06
1.34912e-06
1.29638e-06
1.2901e-06
9.8021e-07
8.85749e-07
5.13493e-07
8.45269e-07
1.52563e-06
9.61517e-07
7.4758e-07
3.58505e-06
2.6299e-06
2.10579e-06
2.31834e-06
1.71935e-06
1.80354e-06
1.57832e-06
1.70228e-06
1.37e-06
1.41197e-06
1.25075e-06
1.36898e-06
1.21177e-06
1.25109e-06
1.18756e-06
1.23834e-06
1.1721e-06
1.15694e-06
1.15415e-06
1.22113e-06
1.18144e-06
1.2903e-06
1.27195e-06
1.41024e-06
1.40837e-06
1.50197e-06
1.55208e-06
1.68241e-06
1.70599e-06
1.9479e-06
1.97846e-06
2.2674e-06
2.3288e-06
2.60769e-06
2.77501e-06
3.12884e-06
3.50558e-06
3.9344e-06
4.259e-06
4.85444e-06
5.45135e-06
6.23653e-06
6.82121e-06
7.73301e-06
8.39745e-06
9.22276e-06
9.82363e-06
1.06285e-05
1.12238e-05
1.19979e-05
1.25106e-05
1.33291e-05
1.37045e-05
1.45558e-05
1.49903e-05
1.57872e-05
1.60623e-05
1.67941e-05
1.69509e-05
1.77115e-05
1.77877e-05
1.85638e-05
1.84603e-05
1.94139e-05
1.91895e-05
2.01859e-05
1.99379e-05
2.11828e-05
2.0352e-05
2.18711e-05
2.08708e-05
2.25087e-05
2.13853e-05
2.29408e-05
2.18875e-05
2.32937e-05
2.27352e-05
2.52424e-05
2.71026e-05
3.11924e-05
3.5439e-05
3.99246e-05
4.41146e-05
4.75642e-05
5.03713e-05
5.26328e-05
5.44661e-05
5.62423e-05
5.78441e-05
5.90174e-05
5.97796e-05
6.05867e-05
6.15131e-05
6.22898e-05
6.2768e-05
6.31615e-05
6.35971e-05
6.40296e-05
6.44172e-05
6.47715e-05
6.50832e-05
6.53871e-05
6.56312e-05
6.5927e-05
6.61573e-05
6.64441e-05
6.6614e-05
6.68711e-05
6.69894e-05
6.72356e-05
6.73048e-05
6.75547e-05
6.75799e-05
6.78273e-05
6.78082e-05
6.80456e-05
6.79836e-05
6.82227e-05
6.81373e-05
6.83644e-05
6.82212e-05
6.83888e-05
6.82046e-05
6.8371e-05
6.82153e-05
6.83833e-05
6.82323e-05
6.83632e-05
6.82127e-05
6.83079e-05
6.81983e-05
6.82746e-05
6.82056e-05
6.82286e-05
6.81744e-05
6.81309e-05
6.81196e-05
6.80378e-05
6.80949e-05
6.79842e-05
6.80953e-05
6.79346e-05
6.80944e-05
6.78924e-05
6.81096e-05
6.78785e-05
6.81503e-05
6.78963e-05
6.82075e-05
6.7929e-05
6.82584e-05
6.79709e-05
6.81487e-05
6.82468e-05
6.95158e-05
7.0387e-05
7.29326e-05
7.36735e-05
7.48165e-05
7.54775e-05
8.11062e-05
7.69424e-05
7.74083e-05
6.36687e-05
6.6663e-05
5.44908e-05
2.80651e-05
7.45703e-06
1.49368e-06
2.165e-07
6.67704e-08
8.87075e-09
2.56698e-08
1.99092e-07
1.8507e-07
1.2795e-07
3.9303e-08
3.09082e-08
6.30524e-08
6.45954e-08
5.22588e-08
4.33242e-08
3.83278e-08
3.20996e-08
3.49163e-08
3.5131e-08
3.47016e-08
3.56971e-08
3.25636e-08
3.99494e-08
3.89879e-08
5.43408e-08
6.37604e-08
6.54498e-08
3.36197e-08
3.93733e-08
1.37171e-07
1.99736e-07
2.22744e-07
3.69875e-08
5.73822e-09
1.98307e-08
6.46441e-08
4.68291e-08
8.392e-08
1.25413e-06
6.16617e-06
2.20883e-05
4.05757e-05
4.9384e-05
5.01841e-05
5.3235e-05
5.1718e-05
5.17778e-05
5.05148e-05
5.0146e-05
4.93769e-05
4.91985e-05
4.87441e-05
4.86934e-05
4.8426e-05
4.84536e-05
4.8286e-05
4.83553e-05
4.8243e-05
4.83239e-05
4.82414e-05
4.83149e-05
4.82517e-05
4.83079e-05
4.82658e-05
4.82977e-05
4.82699e-05
4.82856e-05
4.82535e-05
4.82609e-05
4.8238e-05
4.82018e-05
4.82056e-05
4.81648e-05
4.81315e-05
4.80631e-05
4.81044e-05
4.7995e-05
4.79695e-05
4.78637e-05
4.78503e-05
4.76884e-05
4.76639e-05
4.74851e-05
4.74592e-05
4.72764e-05
4.7233e-05
4.70189e-05
4.69555e-05
4.67339e-05
4.66477e-05
4.64059e-05
4.62934e-05
4.6018e-05
4.58806e-05
4.55758e-05
4.54175e-05
4.50881e-05
4.49014e-05
4.45456e-05
4.43068e-05
4.39123e-05
4.36201e-05
4.31887e-05
4.28424e-05
4.23749e-05
4.1967e-05
4.14567e-05
4.09799e-05
4.04153e-05
3.98679e-05
3.9245e-05
3.86301e-05
3.79414e-05
3.72519e-05
3.64896e-05
3.57229e-05
3.48885e-05
3.40528e-05
3.31609e-05
3.22832e-05
3.13641e-05
3.04656e-05
2.94256e-05
2.84093e-05
2.74774e-05
2.65553e-05
2.54771e-05
2.43852e-05
2.32521e-05
2.216e-05
2.10593e-05
1.99826e-05
1.8819e-05
1.77446e-05
1.66739e-05
1.56609e-05
1.45479e-05
1.35803e-05
1.26183e-05
1.17749e-05
1.07976e-05
1.00405e-05
9.12805e-06
8.41222e-06
7.546e-06
6.83456e-06
6.09946e-06
5.48111e-06
4.81719e-06
4.07892e-06
3.45831e-06
2.92478e-06
2.58735e-06
2.23705e-06
2.0484e-06
1.64786e-06
1.4003e-06
9.82659e-07
1.07747e-06
1.08983e-06
1.09062e-06
8.11147e-07
7.4926e-07
5.61273e-07
5.75969e-07
3.81071e-07
4.7248e-07
4.77285e-07
6.04177e-07
6.55105e-07
7.94832e-07
8.66796e-07
1.02132e-06
9.85488e-07
1.10615e-06
1.1266e-06
1.18311e-06
1.14662e-06
1.19093e-06
1.30186e-06
1.39498e-06
1.43948e-06
1.37317e-06
1.32291e-06
1.26566e-06
1.32401e-06
1.24197e-06
1.24396e-06
1.1558e-06
1.23066e-06
1.1657e-06
1.33412e-06
1.17358e-06
1.24523e-06
1.03193e-06
1.07152e-06
6.72508e-07
3.82706e-07
8.60975e-07
3.66436e-07
9.66654e-07
2.97609e-06
1.9991e-06
1.98289e-06
2.24768e-06
1.75378e-06
1.63861e-06
1.37026e-06
1.45936e-06
1.27082e-06
1.26285e-06
1.13691e-06
1.17928e-06
1.00383e-06
1.05992e-06
1.03317e-06
1.07705e-06
9.82988e-07
1.04723e-06
1.03877e-06
1.13933e-06
1.08401e-06
1.19079e-06
1.12016e-06
1.22669e-06
1.13985e-06
1.29719e-06
1.24495e-06
1.41702e-06
1.36071e-06
1.55571e-06
1.47987e-06
1.67596e-06
1.59704e-06
1.76279e-06
1.7699e-06
1.85838e-06
1.84659e-06
2.02521e-06
1.91577e-06
2.09631e-06
2.18227e-06
2.60266e-06
2.64254e-06
3.23279e-06
3.61354e-06
4.28405e-06
4.67224e-06
5.40267e-06
5.96504e-06
6.88535e-06
7.55056e-06
8.6724e-06
9.24099e-06
1.03873e-05
1.0986e-05
1.20927e-05
1.25399e-05
1.35237e-05
1.37717e-05
1.47909e-05
1.49642e-05
1.59922e-05
1.60053e-05
1.71512e-05
1.70319e-05
1.82232e-05
1.80955e-05
1.9472e-05
1.88411e-05
2.03412e-05
1.97042e-05
2.12164e-05
2.04201e-05
2.19006e-05
2.11461e-05
2.2553e-05
2.2053e-05
2.47817e-05
2.74431e-05
3.23319e-05
3.63081e-05
4.04062e-05
4.46572e-05
4.85776e-05
5.20404e-05
5.50499e-05
5.7655e-05
6.00684e-05
6.21858e-05
6.39258e-05
6.52944e-05
6.65988e-05
6.79024e-05
6.9057e-05
6.99418e-05
7.07133e-05
7.14695e-05
7.22025e-05
7.28738e-05
7.35036e-05
7.40724e-05
7.46267e-05
7.51057e-05
7.56245e-05
7.60637e-05
7.65559e-05
7.69224e-05
7.73675e-05
7.76688e-05
7.80872e-05
7.83289e-05
7.87331e-05
7.89248e-05
7.93082e-05
7.94504e-05
7.98052e-05
7.99004e-05
8.02343e-05
8.03e-05
8.06027e-05
8.06142e-05
8.08367e-05
8.08036e-05
8.09939e-05
8.09839e-05
8.11571e-05
8.11568e-05
8.12782e-05
8.12839e-05
8.13544e-05
8.13969e-05
8.14317e-05
8.15184e-05
8.14911e-05
8.15982e-05
8.14975e-05
8.16457e-05
8.14913e-05
8.17033e-05
8.15081e-05
8.17775e-05
8.15279e-05
8.18515e-05
8.1547e-05
8.19307e-05
8.15777e-05
8.20232e-05
8.16174e-05
8.21191e-05
8.16572e-05
8.22078e-05
8.17062e-05
8.22667e-05
8.19469e-05
8.30942e-05
8.36197e-05
8.58058e-05
8.6712e-05
8.85511e-05
8.64322e-05
9.09467e-05
8.71851e-05
9.09536e-05
7.47516e-05
7.2987e-05
6.04537e-05
3.33668e-05
9.46491e-06
2.03658e-06
2.81921e-07
7.85287e-08
9.64037e-09
2.42415e-08
1.96214e-07
1.82898e-07
1.26042e-07
4.03743e-08
3.29106e-08
6.39558e-08
6.42089e-08
5.24536e-08
4.25006e-08
3.78119e-08
3.29518e-08
3.54118e-08
3.55981e-08
3.48936e-08
3.58877e-08
3.36037e-08
4.03959e-08
3.88663e-08
5.42319e-08
6.40459e-08
6.64344e-08
3.61132e-08
4.02721e-08
1.39519e-07
1.98828e-07
2.26972e-07
3.86176e-08
5.88569e-09
1.77975e-08
6.15226e-08
4.05872e-08
5.72398e-08
6.59291e-07
3.83664e-06
1.58312e-05
3.42084e-05
4.61259e-05
4.77858e-05
5.19298e-05
5.16771e-05
5.24972e-05
5.19707e-05
5.20572e-05
5.16265e-05
5.16766e-05
5.13244e-05
5.14651e-05
5.11678e-05
5.13486e-05
5.11155e-05
5.12946e-05
5.11245e-05
5.12813e-05
5.11605e-05
5.12845e-05
5.11989e-05
5.12881e-05
5.12335e-05
5.12907e-05
5.12494e-05
5.12909e-05
5.12386e-05
5.12712e-05
5.12291e-05
5.121e-05
5.11884e-05
5.11778e-05
5.11026e-05
5.1041e-05
5.10383e-05
5.09612e-05
5.08918e-05
5.08021e-05
5.07365e-05
5.05883e-05
5.05137e-05
5.03395e-05
5.02473e-05
5.00626e-05
4.99462e-05
4.97174e-05
4.95761e-05
4.9334e-05
4.9161e-05
4.88853e-05
4.86818e-05
4.83631e-05
4.81271e-05
4.77688e-05
4.75027e-05
4.71069e-05
4.68054e-05
4.63676e-05
4.60101e-05
4.55237e-05
4.51056e-05
4.45646e-05
4.40774e-05
4.34891e-05
4.29338e-05
4.22907e-05
4.16623e-05
4.09547e-05
4.02365e-05
3.94452e-05
3.86469e-05
3.77786e-05
3.68942e-05
3.59363e-05
3.49634e-05
3.39257e-05
3.28839e-05
3.17852e-05
3.07066e-05
2.9589e-05
2.84959e-05
2.72028e-05
2.59426e-05
2.48183e-05
2.37436e-05
2.24701e-05
2.11897e-05
1.98595e-05
1.86034e-05
1.733e-05
1.6098e-05
1.47506e-05
1.35292e-05
1.22828e-05
1.11036e-05
9.76999e-06
8.62315e-06
7.43621e-06
6.45985e-06
5.31254e-06
4.54457e-06
3.55257e-06
2.99867e-06
2.19387e-06
1.96129e-06
1.41814e-06
1.37624e-06
8.24901e-07
6.76325e-07
4.52266e-07
7.076e-07
5.8979e-07
8.43725e-07
6.16927e-07
6.01695e-07
3.65273e-07
4.88539e-07
5.27694e-07
8.06393e-07
6.14393e-07
6.7092e-07
4.04134e-07
4.93488e-07
3.2555e-07
3.82091e-07
3.39209e-07
5.54272e-07
5.05931e-07
7.64119e-07
6.73316e-07
9.77135e-07
8.70998e-07
1.03626e-06
9.7674e-07
1.17692e-06
1.0326e-06
1.12367e-06
1.05691e-06
1.34337e-06
1.22358e-06
1.30861e-06
1.04142e-06
1.13864e-06
1.00816e-06
1.2306e-06
1.04708e-06
1.14943e-06
9.11278e-07
9.8293e-07
8.53623e-07
1.05864e-06
9.41405e-07
1.13953e-06
1.00754e-06
8.83797e-07
7.94471e-07
4.00919e-07
1.08293e-06
8.89731e-07
8.23221e-07
3.15259e-06
2.21447e-06
2.23906e-06
2.12434e-06
1.4947e-06
1.55783e-06
1.25242e-06
1.20717e-06
1.08493e-06
1.07638e-06
9.79382e-07
9.42702e-07
8.44372e-07
9.14089e-07
8.33916e-07
8.30988e-07
7.96926e-07
8.87363e-07
8.70976e-07
9.70559e-07
9.41167e-07
1.09131e-06
1.05397e-06
1.17601e-06
1.07516e-06
1.22548e-06
1.11724e-06
1.30707e-06
1.21296e-06
1.4015e-06
1.29902e-06
1.47804e-06
1.34313e-06
1.52762e-06
1.44974e-06
1.61031e-06
1.44156e-06
1.62436e-06
1.39871e-06
1.56695e-06
1.27883e-06
1.6169e-06
1.21742e-06
1.54589e-06
1.40387e-06
1.80135e-06
1.649e-06
2.07673e-06
2.08484e-06
2.61643e-06
2.74611e-06
3.67582e-06
3.94054e-06
5.12962e-06
5.7282e-06
7.06614e-06
7.66489e-06
8.87239e-06
9.26741e-06
1.05273e-05