/*--------------------------------*- C++ -*----------------------------------*\
| =========                 |                                                 |
| \\      /  F ield         | OpenFOAM: The Open Source CFD Toolbox           |
|  \\    /   O peration     | Version:  v2006                                 |
|   \\  /    A nd           | Website:  www.openfoam.com                      |
|    \\/     M anipulation  |                                                 |
\*---------------------------------------------------------------------------*/
FoamFile
{
    version     2.0;
    format      ascii;
    class       volScalarField;
    location    "185";
    object      ducSensor;
}
// * * * * * * * * * * * * * * * * * * * * * * * * * * * * * * * * * * * * * //

dimensions      [0 0 0 0 0 0 0];


internalField   nonuniform List<scalar> 
93840
(
0
0.00488185
0
0
0
0.023609
0.00689218
0
0
0
0
0
0
0
0
0
0
0
0
0
0
0
0
0
0
0
0
0
0
0.00287368
0
0.0196042
0.00112202
0
0
0
0
0
0
0
0
0
0
0
0
0
0
0
0
0
0
0
0
0
0
0
0
0.000244611
0
0
0
0.000242454
0
8.36756e-05
0
1.3507e-05
5.85624e-05
0.000119244
0
0
4.9029e-05
0.000205078
0.000185594
0.00021237
0.000183637
0.000232976
0.00013085
0.000192184
0.000201377
0.000189289
0.000196544
0.000219806
0.000249379
0.000285583
0.00028468
0.000291324
0.00029058
0.000286366
0.000293179
0.000322474
0.000361363
0.000371471
0.00038731
0.000415647
0.000442029
0.000455561
0.000455039
0.000456809
0.000471949
0.00048667
0.000477276
0.000469995
0.000607705
0.000742155
0.000506264
0.000265617
0.000406977
0.00060186
0.000614433
0.000601165
0.000583187
0.000564072
0.000598011
0.000596099
0.000556173
0.000507941
0.000518048
0.000501808
0.000434245
0.000392385
0.000332478
0.000230666
7.60474e-05
5.10318e-05
0
0
0
0
0
0
0
0
0
0
0
0
0
0
0
0
0
0
0
0
0
0
0
0
0
0
0
0
0
0
0
0
0
0
0
0
0
0
0
0
0
0
0
0
0
0
0
0
0
0
0
0
0
0
0
0
0
0
0
0
0
0
0
0
0
0
0
0
0
0
0
0
0
0
0
0.000282726
0.000118119
7.38898e-05
3.816e-05
5.48466e-05
0.000456884
0.000488778
0.000526376
0.000398453
0.000462316
0.000363496
0.00039624
0.00028309
0.000163337
0.000251591
0.000347182
0.000354342
0.000331658
0.000120405
0
0
0
3.08973e-05
0.000392428
0.000449019
0.000325092
0.000217899
0.000180161
0.000347787
0.000399168
0.000140909
0
0
0
0
0
8.36069e-05
0
0
0
0
0
0
0
0
0
0
0
0
0
0
0
0
0
0
0
0
0
0.000372627
0.00227596
0.00622472
0.00931123
0.00915417
0.00315637
0.00131625
0.000950295
0.000836102
0.000804956
0.000910683
0.000967387
0.000670232
0.000423727
0.000618818
0.000878505
0.000754944
0.00049505
0.000523793
0.000710601
0.000782144
0.000730868
0.000714276
0.000723157
0.000737302
0.000747561
0.00076812
0.000786013
0.000776261
0.000775132
0.000778761
0.000797294
0.000801351
0.000826135
0.000831491
0.000872656
0.000870777
0.000925987
0.000908757
0.000985489
0.000950848
0.00104369
0.000964144
0.00108571
0.000981466
0.00119481
0.00107172
0.00132864
0.00107105
0.00137467
0.00102864
0.00147035
0.0010274
0.00161822
0.00101234
0.00174211
0.000907636
0.00185899
0.000846496
0.00209431
0.000841201
0.00237317
0.000702588
0.00258837
0.000472086
0.00287734
0.000210011
0.00323323
0
0.00366685
0
0.0041509
0
0.00502519
0
0.00504237
0
0
0.0458948
0
0
0
0
0
0
0
0
0
0
0
0
0
0
0
0
0
0.00521911
0
0
0
0
0
0
0
0.0796092
0.0267746
0.0102415
0
0.0401071
0.0182462
0
0.0038464
0.101824
0
0.0145324
0
0
0
0
0.00895922
0
0.0193304
0
0
0
0
0
0
0
0
0
0.0181901
0
0.033356
0.0142037
0.0326285
0.0545635
0.0476495
0.140003
0
0.0353337
0.00520429
0
0
0
0
0
0
0
0
0
0
0
0
0
0
0
0
0.0016835
0
0.00135761
0.00112191
0.000173653
0.00034121
0.00239882
0
0
0.00450229
0.00866752
0
0
1.98981e-05
0.00658342
0.00139722
0.00156433
0
0.00168843
0.0017625
0.00223127
0.000623386
0.000582052
0.00100395
0.00198928
0.00194641
0.00208329
0.00178934
0.00189766
0.00104108
0.0012105
0.00124944
0.00127786
0.00133798
0.00137982
0.00143118
0.00147025
0.00158707
0.00160212
0.00161234
0.00165406
0.00168125
0.00162847
0.00168124
0.00173622
0.00188249
0.00207054
0.0022373
0.00233354
0.00235732
0.00235639
0.00239692
0.00246531
0.0024429
0.00239338
0.00271846
0.00324472
0.00262549
0.00176264
0.00228969
0.00303414
0.00317425
0.00315585
0.00310554
0.00297865
0.00316945
0.00320736
0.00294813
0.00273253
0.00280782
0.00259522
0.00226037
0.00176997
0.00159297
0.000320336
0
0
0
0
0
0
0
0
0
0
0
0
0
0
0
0
0
0
0
0
0
0
0
0
0
0
0
0
0
0
0
0
0
0
0
0
0
0
0
0
0
0
0
0
0
0
0
0
0
0
0
0
0
0
0.0534919
0.215045
0.21752
0.171882
0.1287
0.205742
0.480195
0.202687
0
0
0
0
0
0
0
0
0
0
0
0
0
0
0
0
0
0
0
0
0
0
8.07461e-05
0.000118232
0
0
0
0
0
0
0
0.000339806
0
0
0
0
0
0
0.00147977
0.00188352
0.000784263
0
0
0.00125377
0.00242125
0
0
0
0
0
0
0
0
0
0
0
0
0
0
0
0
0
0
0
0
0
0
0
0
0
0
0
0
0.00529789
0.0220914
0.0383416
0.0775392
0.0181171
0.00568044
0.00575264
0.00647609
0.00652066
0.00644454
0.00615956
0.00571393
0.00571106
0.00579593
0.00544138
0.00485573
0.00465753
0.00486621
0.00479481
0.00440268
0.00409324
0.00396953
0.00380715
0.00357368
0.00333543
0.00309132
0.0028587
0.0026021
0.0024253
0.00224371
0.00205268
0.0018176
0.00160837
0.00140883
0.00121122
0.00101629
0.00082948
0.000639295
0.000402574
0.000243982
0
0
0
0
0
0
0
0
0
0
0
0
0
0
0
0
0
0
0
0
0
0
0
0
0
0
0
0
0
0
0
0
0
0
0
0
0.00485137
0.00337171
0
0.478508
0.0451271
0.0492591
0.0375129
0.0260976
0.0209842
0.00851689
0.0121468
0.00657406
0.0279204
0.0105221
0.018152
0
0.0132613
0
0
0
0
0
0.0300527
0
0
0
0
0
0.0286025
0
0
0
0
0
0.0864403
0.279565
0
0
0
0.0126931
0
0.131076
0.141282
0
0
0
0
0
0
0
0
0
0
0
0
0
0
0
0
0.0061776
0
0.00156776
0
0
0
0
0.32629
0
0
0
0
0
0
0
0
0
0
0
0
0
0
0
0
0
0
0
0
0
0
0
0
0
0.00403112
0
0
0
0.0016917
9.91038e-05
0
0
0
0.00196775
0.0014824
0
7.31736e-05
0.000878434
0.00216903
0.0027853
0.00357199
0.00281946
0.00295234
0.0022636
0.00254583
0.00267115
0.00271308
0.00266698
0.00286682
0.00322151
0.00358297
0.0036219
0.00373428
0.00369902
0.00368047
0.00371613
0.00398322
0.00435465
0.00443196
0.00460773
0.00491316
0.0052308
0.00542051
0.00537222
0.00538059
0.00552954
0.00570097
0.00561895
0.00546084
0.00688225
0.00867432
0.00635184
0.00334227
0.00490476
0.007039
0.00737087
0.00727469
0.00716947
0.00689715
0.00735467
0.00756304
0.00704365
0.00670521
0.00706551
0.00679933
0.0063819
0.00545201
0.0054266
0.00312506
0.00235618
4.65818e-06
0
0
0
0
0
0
0
0
0
0
0
0
0
0
0
0
0
0
0
0
0
0
0
0
0
0
0
0
0
0
0
0
0
0
0
0
0
0
0
0
0
0
0
0
0
0
0
0
0
0
0
0
0
0
0
0
0
0
0
0
0
0
0
0
0
0
0
0
0
0
0
0
0
0
0
0
0.0728957
0.00497979
0.00780858
0.00348471
0.00719028
0.0242586
0.0190225
0.0101422
0.0198932
0.0133944
0.00813666
0.00337784
0.000889194
0.00314955
0.00450066
0.00468469
0.00368885
0
0
0
0
0
0.00336135
0.00578541
0.00351983
0.00126807
0.00127121
0.00455568
0.00512774
0.000828065
0
0
0
0
0
0
0
0
0
0
0
0
0
0
0
0
0
0
0
0
0
0
0
0
0
0
0
0.00785401
0.0486207
0.0747386
0.105978
0.0608914
0.0148574
0.0080091
0.00685336
0.00670392
0.00676841
0.00744213
0.00778968
0.00620946
0.00496363
0.00629214
0.00788725
0.0070542
0.00551821
0.00579171
0.00703461
0.00739855
0.00699578
0.00687428
0.00691545
0.00699234
0.00702036
0.00707729
0.00707924
0.00689294
0.00677984
0.00672876
0.00676574
0.00673855
0.00680227
0.00674889
0.00685303
0.00672857
0.00686178
0.00668047
0.00689434
0.00665422
0.00692011
0.00648705
0.00682656
0.00634403
0.00697453
0.00641078
0.00705896
0.00607981
0.00680643
0.00573984
0.00674965
0.00554552
0.00682147
0.00530819
0.00670481
0.00493465
0.00660526
0.00479269
0.00674572
0.00478621
0.00677191
0.00455243
0.00662734
0.00438848
0.0066548
0.00434267
0.00668062
0.004164
0.00645734
0.0038807
0.00583944
0.00375256
0.00518723
0.00373117
0.00597989
0.00412048
0.0223261
0.0152402
0.00506566
0
0.243014
0.00745997
0
0
0
0
0
0
0
0
0
0
0
0
0
0
0
0.0393307
0
0.0629451
0.0141526
0.00669556
0.0151302
0
0.00325479
0
0
0
0
0.0191908
0
0.0967141
0
0.0101077
0
0.018003
0
0
0.0251936
0
0
0
0.062061
0
0.000556651
0
0
0
0
0
0
0
0.0065339
0
0.0107112
0
0.0278788
0.0038279
0.0257454
0
0
0
0
0
0
0
0
0
0
0
0
0
0
0
0
0
0
0
0
0
0
0
0
0
0
0
0
0.00645973
0
0
0.000551635
0.00233498
0.0025911
0
0
0
0.00329191
0.00225657
0.00138285
0.000143139
0.00125353
0.00142655
0.00350227
0.00434051
0.00354583
0.00311917
0.00276689
0.00262986
0.00274973
0.00290955
0.00279664
0.00308527
0.00337483
0.00370982
0.00378637
0.0038903
0.00385744
0.0038495
0.00389081
0.00407186
0.00438988
0.00449243
0.00471841
0.00506146
0.00540316
0.00558991
0.0055564
0.0055552
0.00570931
0.00584936
0.00583988
0.0056961
0.00710276
0.00884769
0.00653511
0.00361048
0.00517709
0.00737505
0.00777607
0.00776598
0.00768219
0.00744695
0.00803375
0.008246
0.00778374
0.00749112
0.00796207
0.00777514
0.00717252
0.00613271
0.00605383
0.00407612
0.00282907
0
0
0
0
0
0
0
0
0
0
0
0
0
0
0
0
0
0
0
0
0
0
0
0
0
0
0
0
0
0
0
0
0
0
0
0
0
0
0
0
0
0
0
0
0
0
0
0
0
0
0
0
0
0
0
0
0
0.0215358
0.0717048
0
0
0
0
0
0
0
0
0
0
0
0
0
0
0
0
0
0
0
0.775543
0.247624
0.29682
0.107292
0.216145
0.12047
0.211973
0.0783586
0.0647145
0.0469178
0.0188512
0.0110616
0.00338296
0.0184284
0.014307
0.00819729
0
0
0
0
0
0.00542132
0.00657618
0.00454851
0.000386349
0.000548441
0.00466638
0.00645698
0
0
0
0
0
0
0
0
0
0
0
0
0
0
0
0
0
0
0
0
0
0
0
0
0
0
0
0
0.00746545
0.0573798
0.108135
0.112125
0.0841235
0.0149067
0.0080972
0.00762687
0.00762906
0.00770414
0.00819538
0.00839776
0.0072373
0.00634214
0.00734279
0.00847491
0.00780408
0.00668239
0.00690257
0.00776417
0.00798058
0.00764012
0.00749231
0.0074404
0.00741158
0.00735108
0.00731045
0.00722279
0.00701505
0.00685487
0.00673534
0.00665887
0.00655194
0.00650874
0.00640321
0.00638757
0.0062433
0.00623031
0.0060427
0.00606546
0.00582234
0.00585946
0.00551406
0.00560588
0.00522511
0.00546019
0.00495021
0.00518749
0.00448228
0.00484716
0.00409557
0.00460804
0.00371538
0.00439189
0.00333434
0.00416064
0.00299104
0.00400915
0.00275548
0.00387449
0.00252427
0.00365595
0.00227916
0.00352731
0.00226052
0.00352785
0.00222564
0.00340773
0.00212781
0.0032099
0.00206534
0.00293576
0.00227251
0.00280036
0.00296268
0.00177978
0.00428077
0.00375398
0
0.0149326
0
0.161352
0.071786
0.0299863
0.00789759
0.00188307
0
0
0
0
0
0
0.0457337
0
0
0
0
0
0.0138915
0.00910258
0.00314513
0
0.0106003
0.0623814
0.00911815
0.17752
0
0.00554596
0
0.0038253
0.0582125
0
0
0.044128
0
0
0
0
0.0245248
0
0
0
0
0.00212691
0
0
0
0
0.0291064
0
0
0
0
0.00744196
0
0.0138758
0
0.00948586
0
0.0139782
0
0
0.00106604
0
0
0
0
0
0
0
0
0
0
0
0
0
0
0
0
0
0
0
0
0
0.00121635
0
0
0
0.00560372
0
0
0.000966948
0
0.00333855
0
0.000172388
0
0.0034451
0.00247673
0.00136035
0.000153657
0.00126599
0.00185252
0.00329473
0.00474403
0.00388192
0.00364407
0.00302985
0.00292289
0.00291644
0.0031889
0.00315413
0.00345487
0.00376791
0.00415534
0.00423798
0.00434491
0.00431476
0.00430467
0.00435259
0.00456188
0.00492484
0.00506114
0.00532979
0.00572928
0.00610999
0.00631846
0.00629677
0.00630522
0.0065246
0.00668112
0.00668067
0.00660171
0.00831302
0.010285
0.00751866
0.00420134
0.00609023
0.00876421
0.0092845
0.00938464
0.00936567
0.00923702
0.0100656
0.0103904
0.0100001
0.00966654
0.0105036
0.0105275
0.0099518
0.00898972
0.00873687
0.00614089
0.00384397
0.00125807
0
0
0
0
0
0
0
0
0
0
0
0
0
0
0
0
0
0
0
0
0
0
0
0
0
0
0
0
0
0
0
0
0
0
0
0
0
0
0
0
0
0
0
0
0
0
0
0
0
0
0
0
0
0
0
0.688612
0.145123
0.274674
0
0
0
0
0
0
0
0
0
0
0
0
0
0
0
0
0
0
0
0.0810931
0.0631618
0.0258119
0.180364
0.150487
0.214098
0.207147
0.244217
0.208805
0.0837295
0.10279
0.0468422
0.0577024
0.0335128
0.085202
0.0345785
0.0169818
0
0
0
0
0.0154242
0.0199856
0.0136588
0.00510857
0.00280264
0.00962099
0.00891408
0.000329529
0
0
0
0
0
0
0
0
0
0
0
0
0
0
0
0
0
0
0
0
0
0
0
0
0
0
0
0.012116
0.0574038
0.146369
0.128346
0.0970511
0.0218193
0.008728
0.00797495
0.00800639
0.00803888
0.00858362
0.00886333
0.00765252
0.00666849
0.00776861
0.00908507
0.00843266
0.00717799
0.00738798
0.00834027
0.0086399
0.00832116
0.008187
0.00815402
0.008139
0.00808042
0.00804378
0.0079714
0.00777944
0.00763697
0.00752663
0.00745659
0.00735109
0.00728492
0.00718458
0.0071602
0.00704536
0.0070257
0.00687564
0.00686621
0.00666362
0.00662598
0.00633706
0.00634715
0.00605224
0.00617716
0.00579015
0.00589939
0.00533963
0.00551114
0.0049378
0.00520977
0.0045618
0.00492316
0.00416326
0.00464157
0.00382186
0.00445103
0.00359762
0.00429795
0.00338215
0.00405023
0.00311755
0.00386212
0.00311906
0.00382994
0.00310848
0.00371679
0.00304106
0.00355244
0.00292928
0.00334183
0.00297208
0.00334812
0.00313454
0.00324513
0.00348847
0.00260587
0.00155747
0.00619369
0
0.0206552
0
0.454385
0.0984825
0.0257889
0.00599835
0
0
0
0
0
0
0
0
0
0
0
0
0
0.0325056
0
0
0
0.0247416
0
0.0201875
0
0
0
0
0
0
0
0.0267576
0
0.0166513
0.00937569
0.00252593
0.0261673
0
0
0.0393596
0.0304366
0
0.00743786
0
0
0
0
0
0
0
0.00117161
0
0.0115978
0
0.0249484
0
0.015568
0
0
0
0
0
0
0
0
0
0
0
0
0
0
0
0
0
0
0
0
0
0
0
0
0.000973602
0.00301884
0
0
0.00337321
0
0
0.00126874
0
0.00173957
0
0
0
0.00434534
0.00236404
0.00163136
0
0.00244608
0.00103634
0.00365734
0.00471399
0.00451908
0.00389737
0.0034675
0.00311358
0.00319599
0.00342814
0.00335835
0.00366757
0.00407468
0.00448668
0.00460049
0.00475981
0.00471852
0.0047288
0.00478906
0.00500591
0.00538203
0.00553235
0.00585235
0.00630954
0.00676557
0.00702396
0.00702034
0.00707118
0.00730617
0.00755163
0.00756318
0.0075472
0.00951167
0.0118544
0.00876659
0.00501503
0.00730333
0.0104073
0.0112187
0.0115263
0.0116797
0.0116548
0.0129143
0.0135443
0.0132268
0.0133346
0.0147631
0.015146
0.0148131
0.0133632
0.0129402
0.00945006
0.00772056
0
0
0
0
0
0
0
0
0
0
0
0
0
0
0
0
0
0
0
0
0
0
0
0
0
0
0
0
0
0
0
0
0
0
0
0
0
0
0
0
0
0
0
0
0
0
0
0
0
0
0
0
0
0
0
0
0
0
0.77419
0
0
0
0
0
0
0
0
0
0
0
0
0
0
0
0
0
0
0
0.0688801
0.308165
0
0
0.531834
0.206208
0.311519
0.390205
0.4162
0.111348
0.29034
0.0830428
0.222693
0.073205
0.465119
0.124985
0.166252
0
0
0
0
0.0363074
0.101568
0.0624336
0.0363557
0.0233061
0.0310985
0.0341356
0.0041591
0
0
0
0
0
0
0
0
0
0
0
0
0
0
0
0
0
0
0
0
0
0
0
0
0
0
0
0.00988958
0.0701498
0.198874
0.16445
0.116851
0.0282838
0.00984078
0.00863264
0.00841014
0.00834393
0.00883784
0.00913532
0.00785701
0.0068426
0.00804457
0.00945613
0.00881193
0.00755393
0.00779613
0.0087905
0.00910783
0.00878305
0.00866069
0.00864526
0.00866343
0.00865102
0.00863807
0.00857887
0.00837214
0.00821597
0.00810778
0.00803167
0.00795236
0.00790985
0.00783373
0.00781559
0.00771945
0.00765704
0.00753122
0.00747235
0.00731481
0.00724657
0.007019
0.0069726
0.00676393
0.00679098
0.00649663
0.00646606
0.00603469
0.00604728
0.00564559
0.00569703
0.00527901
0.00537427
0.00490209
0.00504759
0.00459634
0.00481712
0.00439316
0.00460304
0.00419059
0.00430018
0.00393727
0.00404857
0.00398815
0.00398095
0.00406849
0.00382372
0.00406678
0.00361665
0.00413065
0.003286
0.00444688
0.00318077
0.00497605
0.00339232
0.00476141
0.00483581
3.1589e-05
0.00786102
0
0.00581513
0.00862416
0.0379141
0.0390878
0.0258636
0.0135862
0
0
0
0
0
0.0242923
0
0
0.00764027
0
0
0.0283029
0
0.0472365
0
0
0.0609803
0.0617267
0.00275611
0.0261769
0.0215228
0
0.00385946
0
0.0338468
0.042157
0
0
0.0166542
0.0894777
0.00228094
0
0
0
0
0
0.00348052
0
0
0
0
0.0214815
0
0
0
0
0.0023699
0
0.0175549
0
0.00697048
0
0.00824034
0
0
0
0
0
0
0
0
0
0
0
0
0
0
0
0
0
0
0
0
0
0
0
0
0
0.0064283
0
0
0.000945998
0
0
0.000243902
0
0
0
0.00039363
0
0.00341625
0.00357328
0.00103807
0.000186991
0.00263003
0.00209704
0.00286007
0.00391693
0.00450134
0.00482267
0.00335541
0.00333417
0.00330254
0.0034794
0.00370059
0.0039162
0.00432556
0.00481202
0.00492231
0.00508629
0.00507587
0.0050903
0.00516274
0.00540954
0.0058383
0.006049
0.00642447
0.00695206
0.00745804
0.00776537
0.00780751
0.00791133
0.00825347
0.00852214
0.00862585
0.00875993
0.01115
0.013805
0.010257
0.00612502
0.00894806
0.0128364
0.0140162
0.0147418
0.0152328
0.0156657
0.0176757
0.0190612
0.0193871
0.0202131
0.0235431
0.0259766
0.0260226
0.0247626
0.026419
0.0236692
0.0121913
0.00796229
0
0
0
0
0
0
0
0
0
0
0
0
0
0
0
0
0
0
0
0
0
0
0
0
0
0
0
0
0
0
0
0
0
0
0
0
0
0
0
0
0
0
0
0
0
0
0
0
0
0
0
0
0
0
0
0.319769
0.102066
0.224297
0.00180296
0
0
0
0
0
0
0
0
0
0
0
0
0
0
0
0
0
0
0
0.0561093
0.354454
0
0.0157359
0.17117
0.596169
0.221253
0.491897
0.106333
0.207411
0.0758858
0.135712
0.136326
0.277199
0.182051
0.104956
0.0192066
0
0
0
0.150857
0.179346
0.146215
0.116277
0.0704252
0.123295
0.0805949
0.0565942
0
0
0
0
0
0
0
0
0
0
0
0
0
0
0
0
0
0
0
0
0
0
0
0
0
0
0
0.0106817
0.0802175
0.242168
0.209417
0.139649
0.0349958
0.011255
0.00948699
0.00914918
0.00879308
0.00915579
0.00941788
0.0080462
0.00695161
0.00821226
0.00977052
0.0091553
0.0077836
0.00799733
0.00903193
0.00941106
0.00913451
0.00904434
0.00905091
0.0090801
0.00905604
0.00903842
0.00899268
0.00881314
0.00868793
0.00860795
0.00854531
0.00846551
0.00839296
0.00831812
0.00827304
0.00820669
0.00815923
0.00807332
0.0080118
0.00789243
0.00776117
0.00758704
0.00746276
0.00732314
0.00727486
0.00706958
0.00696929
0.00664346
0.00654679
0.0062626
0.00617604
0.00589125
0.00580023
0.00550192
0.00544279
0.00517518
0.00520573
0.00498967
0.00498332
0.00480725
0.00469234
0.00454319
0.00442757
0.00453672
0.00435555
0.00463383
0.00429405
0.00458761
0.00420703
0.00451098
0.00413731
0.00444675
0.00427886
0.00458241
0.00470457
0.00456833
0.00499897
0.00334062
0.00603743
0
0.00711213
0.00159417
0.0150475
0.000172548
0.473088
0.0328877
0.00415192
0
0
0
0
0
0
0
0
0.00188146
0
0.0365935
0
0.0177924
0
0
0.0540232
0
0.026849
0
0
0
0
0
0
0
0
0.00827337
0.0163062
0
0.0753303
0
0.0405681
0
0
0.00525846
0.0090655
0
0
0
0
0.0298454
0
0
0
0
0.00158612
0
0.0127888
0
0.0205261
0
0.00240323
0
0
0
0
0
0
0
0
0
0
0
0
0
0
0
0
0
0
0
0
0
0
0
0
0
0.0118735
0
0
0
0
0
0
0
0
0.0015388
0
0
0.00284951
0.0031661
0
0.000473565
0.0040362
0.00289735
0.00243565
0.003197
0.00450735
0.00540194
0.00349557
0.00351228
0.00358507
0.00370989
0.00375226
0.00403289
0.00458551
0.00507263
0.00527995
0.00549959
0.00549088
0.00553224
0.00563476
0.00589976
0.00633451
0.00657913
0.00704331
0.0076788
0.00831652
0.00871221
0.00881544
0.00903014
0.00942055
0.00990718
0.010112
0.0104194
0.0133848
0.0168294
0.0128254
0.00807698
0.0118847
0.0169312
0.0191206
0.0210547
0.0226518
0.0245364
0.0292964
0.0342475
0.0369794
0.0444409
0.0640778
0.0620618
0.100659
0.0914205
0.172043
0.0139529
0.14843
0
0
0
0
0
0
0
0
0
0
0
0
0
0
0
0
0
0
0
0
0
0
0
0
0
0
0
0
0
0
0
0
0
0
0
0
0
0
0
0
0
0
0
0
0
0
0
0
0
0
0
0
0
0
0
0
0
0.1438
0.916653
0.283546
0
0
0
0
0
0
0
0
0
0
0
0
0
0
0
0
0
0
0
0
0
0.300542
0
0.222035
0.103057
0.369537
0.186033
0.203568
0.0441798
0.144049
0.084979
0.196865
0.0465904
0.431048
0.0762684
0.140204
0
0
0
0.180341
0.222963
0.201361
0.144919
0.130428
0.209988
0.167848
0.142119
0
0
0
0
0
0
0
0
0
0
0
0
0
0
0
0
0
0
0.00438428
0
0
0
0
0
0
0
0
0
0.114312
0.281985
0.283593
0.175742
0.0424953
0.0127821
0.0108275
0.0102032
0.00959166
0.00967208
0.00979776
0.00825261
0.00705884
0.00839303
0.0100051
0.00936233
0.00800874
0.00825602
0.00931897
0.00970014
0.00940289
0.00931332
0.00933057
0.00939453
0.00943307
0.00944874
0.00942248
0.00923673
0.00908627
0.00898976
0.00891815
0.00886582
0.00882912
0.0087946
0.00877003
0.00870636
0.00862127
0.00853325
0.00842224
0.00833282
0.0081981
0.00807778
0.00794312
0.00786547
0.00775153
0.00762801
0.00738625
0.00718305
0.00695851
0.0067939
0.00656758
0.00642255
0.00619473
0.0060673
0.00581847
0.00578378
0.00553276
0.0056393
0.00527279
0.00547184
0.00491002
0.00523307
0.00461696
0.00522829
0.00449651
0.00542181
0.00437377
0.00551925
0.00425886
0.00558787
0.00418536
0.00573776
0.00417211
0.00586393
0.00481385
0.00544119
0.00572772
0.00381502
0.00582225
0.00175842
0.00340405
0.00143169
0.00530073
0.0197114
0.0758463
0.0415648
0.0125939
0
0
0
0
0.00333183
0
0
0
0
0
0.0103243
0.0347662
0.0739137
0
0
0.0429945
0
0
0
0.0230166
0
0
0.0719287
0
0.0444126
0.0981043
0
0.012599
0
0.0232449
0
0.00367522
0.0190684
0
0
0.0163838
0
0
0
0
0.0187465
0
0
0
0
0
0
0.0182686
0
0
0
0
0
0
0
0
0
0
0
0
0
0
0
0
0
0
0
0
0
0
0
0
0
0
0
0
0
0.0112615
0
0
0
0
0
0
0
0
0.00351174
0
0.000374141
0.00190124
0.00356338
0
0.000344957
0.00442508
0.00351611
0.00270611
0.0025181
0.00456459
0.00569576
0.00356463
0.00365136
0.00373833
0.00366547
0.0041376
0.00432702
0.00484635
0.0054659
0.00564756
0.00590655
0.00594962
0.00601807
0.00614182
0.0064545
0.00699659
0.00735875
0.00794427
0.00872013
0.00947422
0.0100147
0.0102574
0.0106103
0.0112528
0.0119889
0.0125452
0.0132728
0.0174141
0.022047
0.0175013
0.0120414
0.0181155
0.0275864
0.0324906
0.0385991
0.0464983
0.0539317
0.0771948
0.0859311
0.122412
0.161484
0.265004
0.242087
0.345302
0.264451
0.386366
0.0628873
0.217091
0
0
0
0
0
0
0
0
0
0
0
0
0
0
0
0
0
0
0
0
0
0
0
0
0
0
0
0
0
0
0
0
0
0
0
0
0
0
0
0
0
0
0
0
0
0
0
0
0
0
0
0
0
0
0
0
0.247663
0.0561015
0.620348
0
0
0
0
0
0
0
0
0
0
0
0
0
0
0
0
0
0
0
0
0.459999
0
0.0324434
0
0.632849
0.0894834
0.510301
0.120631
0.351413
0.0675934
0.174892
0.0478416
0.227376
0.111287
0.326399
0.0765683
0.0903316
0.0160621
0
0
0.0857431
0.242758
0.153934
0.13552
0.0863778
0.207284
0.110243
0.14792
0.00940274
0
0
0
0
0.0476486
0
0
0
0
0
0
0
0
0
0
0
0
0.00440908
0
0
0
0
0
0
0
0
0
0.15098
0.326324
0.357308
0.226304
0.0527851
0.014523
0.0125265
0.0121299
0.0109956
0.0106335
0.0104605
0.00861348
0.00724179
0.00860804
0.010337
0.00968483
0.00817704
0.00838028
0.0094645
0.00988975
0.00964968
0.00960537
0.00965142
0.0097174
0.00971983
0.00971833
0.00969237
0.00952681
0.00943656
0.00938337
0.00933577
0.00927557
0.00919488
0.00913431
0.0090823
0.00904287
0.00899405
0.00895186
0.00886171
0.00880093
0.00862136
0.00852518
0.00831272
0.00827908
0.00811516
0.00805583
0.00782002
0.00765978
0.00740299
0.00730672
0.00699295
0.00694673
0.00655287
0.00655223
0.00617151
0.00623695
0.00589184
0.0060529
0.00568017
0.00591875
0.00534408
0.00567993
0.00503023
0.00563671
0.00495092
0.00577924
0.00496322
0.00579287
0.00495491
0.0057618
0.00507143
0.00573069
0.00521031
0.00564936
0.00561265
0.00536798
0.00593847
0.0046805
0.00606874
0.00214153
0.00500734
0.00109267
0.00298003
0.0113569
0.0332484
0.103741
0.0537535
0.00659572
0
0
0
0
0
0.0137066
0
0
0
0
0.0292392
0.0143501
0
0
0
0.00188425
0
0.00664046
0.000886608
0
0.0830553
0
0.0346199
0.00981919
0
0.0137888
0
0.028233
0
0
0.00281551
0.0389649
0
0
0
0
0
0
0
0.00118788
0
0
0.0322009
0
0.0213568
0
0.0050416
0
0.000992668
0.00661505
0
0
0
0
0
0
0
0
0
0
0
0
0
0
0
0
0
0
0
0
0
0
0
0
0
0
0.0119865
0
0
0
0
0.00194119
0
0
0
0.00369419
0
0.00112706
0.000312887
0.004038
0
0.00179284
0.00288849
0.00509708
0.00190008
0.0030598
0.0040861
0.00612055
0.00375965
0.00388402
0.00391549
0.00421783
0.00427031
0.00448076
0.0051961
0.00584779
0.00620925
0.0065598
0.00663282
0.00674805
0.00695525
0.00732861
0.00793091
0.00840729
0.00920469
0.0102607
0.0113743
0.012195
0.0126919
0.0134842
0.0145557
0.0159627
0.0173415
0.0191784
0.0264247
0.0371549
0.0320578
0.0242839
0.0446329
0.0572728
0.0917442
0.118473
0.161599
0.217572
0.330636
0.355142
0.407836
0.383162
0.401874
0.34107
0.370071
0.286783
0.345953
0.120103
0.220454
0
0
0
0
0
0
0
0
0
0
0
0
0
0
0
0
0
0
0
0
0
0
0
0
0
0
0
0
0
0
0
0
0
0
0
0
0
0
0
0
0
0
0
0
0
0
0
0
0
0
0
0
0
0
0
0
0.133345
0.179712
0.869555
0.00368796
0
0
0
0
0
0
0
0
0
0
0
0
0
0
0
0
0
0
0
0
0
0
0
0
0.254874
0.471481
0.24188
0.363929
0.232631
0.328049
0.16201
0.245333
0.279697
0.150185
0.303104
0.0607761
0.18603
0
0
0.0820163
0.522477
0.180439
0.227959
0.111125
0.456019
0.172083
0.237679
0
0
0
0
0
0
0
0
0
0
0
0
0
0
0
0.00773824
0
0
0.0705224
0
0
0
0
0
0
0
0
0
0.237462
0.409851
0.437091
0.301089
0.0735254
0.0171184
0.0155243
0.0151846
0.013625
0.012485
0.0117789
0.00940353
0.00768462
0.00904192
0.0107564
0.00999647
0.00845768
0.00866439
0.00976958
0.0101868
0.00988561
0.00981271
0.00985338
0.00995729
0.0100397
0.0100813
0.0100832
0.00990846
0.00976034
0.00967646
0.00961034
0.00957216
0.00956051
0.00954944
0.00952896
0.00948889
0.00938297
0.0093156
0.0091735
0.00911849
0.00895928
0.0089192
0.00874122
0.00874425
0.00855673
0.00852404
0.00816701
0.00810679
0.00772288
0.00773003
0.00730601
0.00738734
0.00690145
0.00706489
0.00651706
0.00681066
0.00619806
0.0066613
0.00591378
0.00652349
0.00554007
0.00634776
0.00516019
0.00629212
0.0050041
0.00647933
0.00499655
0.00665331
0.00496077
0.00677756
0.00504726
0.00687555
0.00520915
0.00674773
0.00560559
0.00608982
0.00605943
0.00532617
0.00524386
0.0039403
0.00320146
0.00204135
0.000305312
0.00486063
0.01263
0
0.22607
0.011756
0
0
0
0
0
0.027301
0
0.00721717
0
0.0229388
0.0237333
0.0048726
0
0.0150261
0.157972
0.00930745
0.00938452
0.0113949
0.0252126
0
0
0.0208234
0.0705827
0.0353159
0.00491151
0.00213443
0
0
0
0
0.0046475
0
0
0
0.0195836
0
0
0
0
0
0
0
0.0346188
0
0.000104052
0
0.00372104
0
0
0.00301969
0
0
0
0
0
0
0
0
0
0
0
0
0
0
0
0
0
0
0
0
0
0
0
0
0
0
0.00573556
0
0
0
0
0
0
0
0
0.00380986
0
0.00204597
0
0.00311689
0
0.00139621
0.0030173
0.00395913
0.00324914
0.00372934
0.00503841
0.00547667
0.0040518
0.00415752
0.0041332
0.00438334
0.00457432
0.00503316
0.00573594
0.00657322
0.0069643
0.00742147
0.0076217
0.00783622
0.0081319
0.0086659
0.00955599
0.0103627
0.0115817
0.0131637
0.0148652
0.0164488
0.0179072
0.0198678
0.0230337
0.0275734
0.0322232
0.0406672
0.0680388
0.0994115
0.0845409
0.0985277
0.174402
0.225314
0.325817
0.36861
0.377891
0.373951
0.400194
0.355648
0.365873
0.328407
0.352229
0.298199
0.340201
0.283644
0.291244
0.118319
0.203732
0
0
0
0
0
0
0
0
0
0
0
0
0
0
0
0
0
0
0
0
0
0
0
0
0
0
0
0
0
0
0
0
0
0
0
0
0
0
0
0
0
0
0
0
0
0
0
0
0
0
0
0
0
0
0
0
0.25585
0.071997
0.71477
0.0353554
0
0
0
0
0
0
0
0
0
0
0
0
0
0
0
0
0
0
0
0
0
0
0.320464
0
0.6119
0.102763
0.593912
0.148419
0.550899
0.055622
0.194033
0.0190375
0.46932
0.114835
0.22798
0.0279242
0
0
0
0.106824
0.315378
0.249963
0.170865
0.147339
0.290964
0.249326
0.149691
0
0
0
0
0
0
0
0
0
0
0
0
0
0
0
0.0692891
0
0
0.10034
0
0
0
0
0
0
0
0
0
0.347093
0.5236
0.528891
0.402659
0.0978576
0.0202884
0.0198922
0.0205314
0.0180859
0.0158573
0.0142457
0.0109644
0.00867348
0.00990143
0.011639
0.0107024
0.00883744
0.00894018
0.0100332
0.0104586
0.0102005
0.0101682
0.0102282
0.0103014
0.010312
0.0103131
0.0102893
0.0101451
0.0100841
0.0100523
0.0100154
0.00996664
0.00987296
0.00981179
0.00975382
0.0097342
0.00969531
0.00968308
0.00957746
0.0095556
0.00933776
0.00928666
0.00902888
0.00905061
0.00883286
0.00886907
0.00855418
0.00852494
0.00815879
0.00819857
0.00771763
0.0078605
0.00721985
0.00747393
0.00681882
0.00717217
0.00652453
0.00698463
0.00631026
0.00685458
0.00600858
0.00669758
0.00565536
0.00659374
0.00554312
0.00674562
0.00562369
0.00683302
0.00567576
0.00677338
0.0058606
0.0068121
0.00609113
0.00672656
0.00631218
0.00634702
0.00648748
0.00581765
0.00572185
0.00432264
0.00412641
0.00251268
0.00095299
0.00273192
0.00659055
0
0.119066
0.0365248
0.00118878
0
0
0
0
0.00282364
0
0.0166681
0
0
0
0.0245387
0
0
0
0.0406084
0
0.00302448
0.0174637
0
0.0134146
0
0
0
0
0.00121583
0
0.0198098
0
0
0
0
0
0
0
0
0
0
0
0
0.0221831
0.0707198
0
0.0526594
0
0.354491
0
0.0145194
0
0.0107584
0
0
0
0
0
0
0
0
0
0
0
0
0
0
0
0
0
0
0
0
0
0
0
0.0051664
0
0
0
0.00153971
0
0
0
0
0
0
0
0
0
0.00163532
0
0.00407344
0
0.00197335
0
0.00347377
0.00370069
0.00570618
0.0058099
0.00532398
0.00451212
0.00459372
0.00451568
0.00524371
0.00554119
0.00546219
0.00658794
0.00760314
0.00832834
0.00907939
0.0094387
0.00989194
0.0104902
0.0113943
0.0127711
0.014265
0.0166863
0.0199226
0.0242046
0.0289631
0.0345114
0.0434513
0.0565532
0.0746724
0.100463
0.137181
0.25293
0.323818
0.23206
0.238909
0.307702
0.316373
0.367975
0.365443
0.364969
0.342724
0.374947
0.350462
0.38356
0.365626
0.378615
0.32597
0.368167
0.323875
0.305487
0.135242
0.206685
0
0
0
0
0
0
0
0
0
0
0
0
0
0
0
0
0
0
0
0
0
0
0
0
0
0
0
0
0
0
0
0
0
0
0
0
0
0
0
0
0
0
0
0
0
0
0
0
0
0
0
0
0
0
0
0
0.266348
0.189675
0.867535
0.140925
0.204942
0
0
0
0
0
0
0
0
0
0
0
0
0
0
0
0
0
0
0
0
0
0
0.0652875
0.0185274
0.0786081
0.249387
0.230861
0.345858
0.0703288
0
0.0858716
0.307381
0.200634
0.12936
0.0825679
0
0
0
0.203402
0.211881
0.223964
0.158598
0.179855
0.161271
0.374642
0.140134
0.014068
0
0
0
0
0
0
0
0
0
0
0
0
0
0
0
0
0
0.215366
0
0
0
0
0
0
0
0
0.00923444
0.6947
0.742812
0.64649
0.567688
0.137397
0.0299466
0.0283749
0.0297167
0.0261617
0.0219964
0.0189574
0.0141922
0.0107949
0.0116818
0.0131806
0.0118287
0.00967471
0.00963933
0.0107042
0.0110676
0.0106425
0.0105044
0.0105167
0.0106163
0.0107124
0.0107605
0.0107677
0.0105794
0.0104125
0.0103213
0.0102447
0.0102183
0.0102321
0.0102377
0.0102181
0.0101942
0.0100583
0.00999102
0.00982105
0.00978102
0.00962341
0.00964996
0.00945318
0.00950338
0.00927075
0.0092948
0.00885024
0.00891799
0.00837848
0.0085512
0.00796381
0.00820732
0.00756851
0.00792824
0.00716363
0.00773632
0.00680319
0.00760139
0.0064877
0.00746676
0.00611596
0.00732716
0.00570734
0.00724944
0.00551276
0.00742041
0.00558034
0.00760793
0.00566077
0.00772597
0.00578728
0.0077466
0.0060589
0.00763713
0.00626492
0.00719343
0.00618904
0.00627978
0.00534162
0.00524419
0.00326236
0.00258071
0.000231983
0.000938151
0.00307639
0.0117489
0.0350181
0.0841454
0.00699099
0.00138654
0
0
0
0.0764666
0
0.0233462
0
0.0211516
0
0.00944158
0
0
0.0128414
0
0.000963579
0
0.0254078
0.00094264
0
0
0
0.0274158
0.0402991
0.00899339
0
0.0825153
0.0230803
0
0.00291246
0
0
0.0181785
0.00778246
0
0
0
0
0
0
0
0
0
0
0.383718
0
0
0
0
0
0
0
0
0
0
0
0
0
0
0
0
0
0
0
0
0
0
0
0
0
0
0
0.00179978
0
0
0
0
0.00649162
0
0
0
0.000252896
0
0
0
0
0
0
0.00316146
0
0.00316908
0
0.0024617
0.00433466
0.00763449
0.00696496
0.00552083
0.00523531
0.00524889
0.00537696
0.00618423
0.00646585
0.00703262
0.00826595
0.00990189
0.0110314
0.0122708
0.0132893
0.0144218
0.0159746
0.0181813
0.0219749
0.0277517
0.0340746
0.0468899
0.0608376
0.0843423
0.113313
0.155373
0.19637
0.232893
0.271021
0.291227
0.364103
0.36133
0.257909
0.256153
0.323529
0.311126
0.362459
0.361763
0.361474
0.363845
0.390252
0.356625
0.374848
0.360174
0.380021
0.298874
0.325207
0.315331
0.29883
0.139165
0.177888
0.00329195
0
0
0
0
0
0
0
0
0
0
0
0
0
0
0
0
0
0
0
0
0
0
0
0
0
0
0
0
0
0
0
0
0
0
0
0
0
0
0
0
0
0
0
0
0
0
0
0
0
0
0
0
0
0
0.206463
0.338331
0.140468
0.874365
0.00680002
0
0
0
0
0
0
0
0
0
0
0
0
0
0
0
0
0
0
0
0
0
0
0
0.419836
0
0.18584
0.0957955
0.598674
0.121965
0.367602
0
0.0452961
0.0415484
0.472108
0.133744
0.0758245
0.0200054
0
0
0.277525
0.267546
0.195604
0.208361
0.149598
0.245793
0.378254
0.151449
0
0
0
0
0
0
0
0
0
0
0
0
0
0
0
0.0329162
0
0
0.236953
0
0
0
0
0
0
0