/*--------------------------------*- C++ -*----------------------------------*\
| =========                 |                                                 |
| \\      /  F ield         | OpenFOAM: The Open Source CFD Toolbox           |
|  \\    /   O peration     | Version:  v2006                                 |
|   \\  /    A nd           | Website:  www.openfoam.com                      |
|    \\/     M anipulation  |                                                 |
\*---------------------------------------------------------------------------*/
FoamFile
{
    version     2.0;
    format      ascii;
    class       volScalarField;
    location    "185";
    object      nut;
}
// * * * * * * * * * * * * * * * * * * * * * * * * * * * * * * * * * * * * * //

dimensions      [0 2 -1 0 0 0 0];


internalField   nonuniform List<scalar> 
93840
(
3.62727e-08
3.74687e-08
3.24049e-08
3.80252e-08
4.10914e-08
5.36552e-08
6.62139e-08
6.44538e-08
3.4468e-08
3.96841e-08
1.29882e-07
1.89343e-07
2.07398e-07
2.9894e-08
6.90062e-09
3.52373e-08
9.55291e-08
1.5936e-07
1.56297e-06
8.62952e-06
2.68714e-05
4.98991e-05
5.25453e-05
4.89574e-05
4.41212e-05
3.6216e-05
2.8593e-05
2.31226e-05
1.87221e-05
1.63469e-05
1.4092e-05
1.2604e-05
1.28558e-05
1.23661e-05
1.23984e-05
1.22578e-05
1.21305e-05
1.20903e-05
1.19276e-05
1.19135e-05
1.17637e-05
1.17605e-05
1.16191e-05
1.16131e-05
1.14749e-05
1.14589e-05
1.13249e-05
1.13177e-05
1.11935e-05
1.11741e-05
1.10621e-05
1.10488e-05
1.09209e-05
1.08871e-05
1.08126e-05
1.08397e-05
1.07515e-05
1.07332e-05
1.0604e-05
1.05759e-05
1.05198e-05
1.04959e-05
1.04112e-05
1.04242e-05
1.03734e-05
1.03665e-05
1.0335e-05
1.03586e-05
1.0318e-05
1.03302e-05
1.03141e-05
1.03299e-05
1.03244e-05
1.0362e-05
1.03589e-05
1.03953e-05
1.04056e-05
1.0441e-05
1.04712e-05
1.05173e-05
1.05399e-05
1.0585e-05
1.06201e-05
1.06903e-05
1.075e-05
1.08165e-05
1.08837e-05
1.09533e-05
1.10172e-05
1.10939e-05
1.1193e-05
1.13045e-05
1.14125e-05
1.15347e-05
1.16602e-05
1.18032e-05
1.19438e-05
1.20898e-05
1.22424e-05
1.24116e-05
1.25846e-05
1.27526e-05
1.29303e-05
1.3268e-05
1.36044e-05
1.36929e-05
1.37695e-05
1.40332e-05
1.43183e-05
1.46023e-05
1.48841e-05
1.5167e-05
1.54441e-05
1.57769e-05
1.60729e-05
1.63735e-05
1.6649e-05
1.69798e-05
1.7249e-05
1.75375e-05
1.77628e-05
1.80295e-05
1.81563e-05
1.83435e-05
1.83723e-05
1.83676e-05
1.84726e-05
1.83079e-05
1.83916e-05
1.83066e-05
1.81989e-05
1.81632e-05
1.80141e-05
1.80313e-05
1.79187e-05
1.7903e-05
1.77592e-05
1.77565e-05
1.76467e-05
1.76563e-05
1.75957e-05
1.75651e-05
1.74792e-05
1.74457e-05
1.7386e-05
1.73439e-05
1.73087e-05
1.72463e-05
1.71794e-05
1.70865e-05
1.70206e-05
1.69333e-05
1.68423e-05
1.67307e-05
1.66182e-05
1.64777e-05
1.63328e-05
1.61632e-05
1.5988e-05
1.58016e-05
1.56344e-05
1.54315e-05
1.52121e-05
1.49465e-05
1.46286e-05
1.42785e-05
1.39375e-05
1.35321e-05
1.29989e-05
1.21526e-05
1.0984e-05
9.95005e-06
9.48234e-06
8.23089e-06
4.2044e-06
9.81595e-14
1.96673e-06
3.8707e-06
2.83447e-06
6.31051e-07
1.24956e-06
2.16191e-08
2.97087e-09
3.1785e-06
4.67407e-06
4.33729e-06
2.90739e-08
3.515e-06
1.76683e-05
1.57157e-05
6.85913e-06
1.20514e-05
2.20331e-05
2.61937e-05
2.78414e-05
2.83732e-05
2.96054e-05
3.01138e-05
3.05551e-05
3.06471e-05
3.05146e-05
3.0433e-05
3.02815e-05
3.01588e-05
2.99726e-05
2.98047e-05
2.95837e-05
2.94228e-05
2.91868e-05
2.8983e-05
2.87685e-05
2.85464e-05
2.83451e-05
2.81629e-05
2.79536e-05
2.77726e-05
2.75207e-05
2.73327e-05
2.71358e-05
2.7026e-05
2.68912e-05
2.68147e-05
2.66086e-05
2.64022e-05
2.61317e-05
2.59386e-05
2.57074e-05
2.55637e-05
2.52532e-05
2.50663e-05
2.49169e-05
2.49212e-05
2.49063e-05
2.49134e-05
2.48411e-05
2.48184e-05
2.464e-05
2.46666e-05
2.46066e-05
2.46682e-05
2.45886e-05
2.47426e-05
2.46468e-05
2.47694e-05
2.46886e-05
2.47149e-05
2.46045e-05
2.47319e-05
2.44232e-05
2.44579e-05
2.47589e-05
2.44923e-05
2.47771e-05
2.45387e-05
2.48885e-05
2.46346e-05
2.49795e-05
2.4723e-05
2.46813e-05
2.31302e-05
1.89988e-05
1.3068e-05
1.14826e-05
1.14996e-05
1.16434e-05
1.16917e-05
1.16778e-05
1.1619e-05
1.14012e-05
1.12571e-05
1.1343e-05
1.13721e-05
1.11812e-05
1.09473e-05
1.08974e-05
1.08899e-05
1.07791e-05
1.05932e-05
1.04383e-05
1.03029e-05
1.01568e-05
1.00075e-05
9.84743e-06
9.68929e-06
9.51818e-06
9.35577e-06
9.1982e-06
9.04522e-06
8.88865e-06
8.72995e-06
8.57457e-06
8.41605e-06
8.26194e-06
8.10414e-06
7.95561e-06
7.7942e-06
7.65174e-06
7.48879e-06
7.35157e-06
7.18874e-06
7.06557e-06
6.90359e-06
6.78744e-06
6.61122e-06
6.49584e-06
6.31592e-06
6.22469e-06
6.04783e-06
5.97264e-06
5.79091e-06
5.72644e-06
5.53564e-06
5.49281e-06
5.302e-06
5.28437e-06
5.08684e-06
5.08359e-06
4.86871e-06
4.87931e-06
4.65716e-06
4.69573e-06
4.47041e-06
4.53584e-06
4.2991e-06
4.38587e-06
4.13573e-06
4.25154e-06
3.99699e-06
4.14522e-06
3.90184e-06
4.09485e-06
3.86902e-06
4.23532e-06
3.86638e-06
5.05267e-06
3.91557e-06
7.84701e-06
1.20633e-05
1.68049e-05
1.97039e-05
2.33664e-05
2.66777e-05
3.18415e-05
4.02801e-05
4.6899e-05
5.19951e-05
5.31693e-05
3.17092e-05
1.11176e-05
2.20938e-06
2.42648e-07
1.03607e-07
3.95368e-08
6.90016e-09
2.87163e-08
2.06092e-07
1.87695e-07
1.30105e-07
3.83801e-08
3.22423e-08
6.35961e-08
6.61356e-08
5.34551e-08
4.19284e-08
3.82028e-08
3.20822e-08
3.69535e-08
3.5418e-08
3.51826e-08
3.76225e-08
3.21849e-08
3.83215e-08
4.12842e-08
5.37105e-08
6.57976e-08
6.42824e-08
3.23686e-08
3.81989e-08
1.3219e-07
1.91069e-07
2.09835e-07
3.08227e-08
6.31445e-09
3.09119e-08
8.55819e-08
1.12451e-07
9.53269e-07
6.21764e-06
2.1525e-05
4.52938e-05
5.226e-05
5.06625e-05
4.81219e-05
4.32089e-05
3.65596e-05
3.14112e-05
2.59697e-05
2.24135e-05
1.95361e-05
1.7753e-05
1.69065e-05
1.68452e-05
1.70327e-05
1.65638e-05
1.70742e-05
1.64406e-05
1.70637e-05
1.63706e-05
1.70152e-05
1.63303e-05
1.69725e-05
1.63235e-05
1.69309e-05
1.63291e-05
1.68786e-05
1.63266e-05
1.68331e-05
1.63425e-05
1.67843e-05
1.63564e-05
1.67564e-05
1.63489e-05
1.66709e-05
1.63527e-05
1.67054e-05
1.64237e-05
1.67039e-05
1.64213e-05
1.66646e-05
1.64679e-05
1.66521e-05
1.64658e-05
1.6658e-05
1.6518e-05
1.66614e-05
1.65628e-05
1.67072e-05
1.66171e-05
1.67435e-05
1.66838e-05
1.67867e-05
1.675e-05
1.68556e-05
1.6827e-05
1.69258e-05
1.69124e-05
1.70053e-05
1.70174e-05
1.7105e-05
1.71178e-05
1.71932e-05
1.72185e-05
1.73025e-05
1.73423e-05
1.74158e-05
1.74687e-05
1.75371e-05
1.75813e-05
1.7647e-05
1.77075e-05
1.77775e-05
1.78354e-05
1.78986e-05
1.79571e-05
1.80188e-05
1.80728e-05
1.81232e-05
1.8172e-05
1.82224e-05
1.82595e-05
1.82748e-05
1.83218e-05
1.84179e-05
1.84711e-05
1.84545e-05
1.84574e-05
1.84799e-05
1.8496e-05
1.85014e-05
1.85062e-05
1.84962e-05
1.84849e-05
1.84547e-05
1.84338e-05
1.8391e-05
1.83473e-05
1.82685e-05
1.8206e-05
1.81039e-05
1.80136e-05
1.78658e-05
1.77606e-05
1.75834e-05
1.74619e-05
1.7272e-05
1.71193e-05
1.69553e-05
1.67743e-05
1.66159e-05
1.64291e-05
1.62673e-05
1.61003e-05
1.59166e-05
1.5757e-05
1.55682e-05
1.54265e-05
1.52355e-05
1.50811e-05
1.48695e-05
1.47105e-05
1.45032e-05
1.43365e-05
1.41121e-05
1.39311e-05
1.3697e-05
1.34788e-05
1.32259e-05
1.29949e-05
1.27236e-05
1.24554e-05
1.21559e-05
1.18419e-05
1.14685e-05
1.10646e-05
1.06315e-05
1.01702e-05
9.66837e-06
9.15171e-06
8.60786e-06
8.01349e-06
7.23849e-06
6.21922e-06
5.35243e-06
5.08463e-06
5.08371e-06
4.67177e-06
3.66668e-06
2.29947e-06
1.40309e-06
1.68178e-06
2.15001e-06
1.74057e-06
9.7301e-07
1.18458e-06
1.521e-06
9.4021e-07
5.67173e-07
7.97822e-07
7.59899e-08
1.48369e-07
2.29538e-06
2.44501e-06
2.60564e-06
2.94447e-06
2.20306e-06
1.71611e-06
3.95721e-06
4.15652e-06
1.34478e-06
1.8518e-07
4.58509e-06
8.30408e-06
8.28062e-06
6.46666e-06
6.88132e-06
9.21557e-06
1.21798e-05
1.43433e-05
1.51919e-05
1.58689e-05
1.69641e-05
1.81716e-05
1.90361e-05
1.96853e-05
2.01956e-05
2.0718e-05
2.11456e-05
2.15136e-05
2.18345e-05
2.20923e-05
2.22661e-05
2.2488e-05
2.26246e-05
2.28417e-05
2.29786e-05
2.31581e-05
2.32569e-05
2.33683e-05
2.34465e-05
2.35964e-05
2.37032e-05
2.38497e-05
2.39262e-05
2.40846e-05
2.41206e-05
2.42463e-05
2.42746e-05
2.44055e-05
2.44219e-05
2.45451e-05
2.45699e-05
2.4717e-05
2.47348e-05
2.49347e-05
2.49617e-05
2.51606e-05
2.51648e-05
2.53665e-05
2.5371e-05
2.56004e-05
2.55839e-05
2.58347e-05
2.57861e-05
2.61018e-05
2.60055e-05
2.63598e-05
2.62316e-05
2.66996e-05
2.63053e-05
2.70268e-05
2.63742e-05
2.74033e-05
2.64465e-05
2.7699e-05
2.66592e-05
2.77333e-05
2.73835e-05
2.68774e-05
2.5741e-05
2.5787e-05
2.83551e-05
3.02233e-05
3.06113e-05
3.02258e-05
2.96796e-05
2.90211e-05
2.84155e-05
2.80397e-05
2.76637e-05
2.71358e-05
2.65992e-05
2.62634e-05
2.59811e-05
2.5624e-05
2.52232e-05
2.48978e-05
2.46214e-05
2.43395e-05
2.40674e-05
2.37992e-05
2.35505e-05
2.33018e-05
2.30629e-05
2.28535e-05
2.26261e-05
2.24318e-05
2.22017e-05
2.20288e-05
2.17996e-05
2.16575e-05
2.14144e-05
2.1316e-05
2.10565e-05
2.09916e-05
2.07076e-05
2.06919e-05
2.03745e-05
2.04206e-05
2.00684e-05
2.01653e-05
1.97528e-05
1.99031e-05
1.94556e-05
1.96925e-05
1.91993e-05
1.9505e-05
1.89416e-05
1.93161e-05
1.86899e-05
1.91438e-05
1.84719e-05
1.90124e-05
1.82779e-05
1.88702e-05
1.80697e-05
1.87197e-05
1.78721e-05
1.86199e-05
1.77264e-05
1.85481e-05
1.75903e-05
1.84562e-05
1.74519e-05
1.83813e-05
1.73437e-05
1.83274e-05
1.72922e-05
1.82324e-05
1.73714e-05
1.79479e-05
1.7637e-05
1.79471e-05
1.72237e-05
1.86597e-05
1.94022e-05
2.36794e-05
2.89184e-05
3.26758e-05
3.6884e-05
3.79619e-05
3.85617e-05
4.07553e-05
4.55337e-05
5.07561e-05
5.59389e-05
3.72486e-05
1.44452e-05
3.12186e-06
4.00742e-07
1.20014e-07
4.49394e-08
7.69221e-09
2.75626e-08
2.02388e-07
1.8572e-07
1.28826e-07
3.98616e-08
3.40675e-08
6.42114e-08
6.57722e-08
5.30554e-08
4.1852e-08
3.86169e-08
3.25378e-08
3.66439e-08
3.65909e-08
3.59008e-08
3.78255e-08
3.24825e-08
3.85756e-08
4.05033e-08
5.38107e-08
6.61466e-08
6.52377e-08
3.49061e-08
3.95326e-08
1.33545e-07
1.90804e-07
2.12461e-07
3.22103e-08
6.32816e-09
2.76937e-08
7.91245e-08
8.31477e-08
5.18386e-07
4.3509e-06
1.64083e-05
3.94253e-05
5.04645e-05
5.0933e-05
4.97628e-05
4.74913e-05
4.29849e-05
3.97568e-05
3.59899e-05
3.33001e-05
3.10892e-05
2.99059e-05
2.84266e-05
2.8837e-05
2.82432e-05
2.83338e-05
2.81684e-05
2.81078e-05
2.80997e-05
2.79719e-05
2.80345e-05
2.78783e-05
2.79956e-05
2.78128e-05
2.79682e-05
2.77516e-05
2.793e-05
2.76927e-05
2.79014e-05
2.76469e-05
2.78667e-05
2.76033e-05
2.78267e-05
2.75245e-05
2.77638e-05
2.75372e-05
2.78255e-05
2.75655e-05
2.77761e-05
2.74959e-05
2.77081e-05
2.74792e-05
2.76359e-05
2.74225e-05
2.76096e-05
2.74171e-05
2.75691e-05
2.7422e-05
2.75688e-05
2.74168e-05
2.75465e-05
2.74165e-05
2.75212e-05
2.74177e-05
2.75187e-05
2.74126e-05
2.7505e-05
2.74091e-05
2.74922e-05
2.74222e-05
2.74759e-05
2.73917e-05
2.742e-05
2.735e-05
2.73817e-05
2.73156e-05
2.73202e-05
2.72551e-05
2.72219e-05
2.71289e-05
2.70808e-05
2.70039e-05
2.69408e-05
2.68396e-05
2.67524e-05
2.66376e-05
2.65312e-05
2.63864e-05
2.62403e-05
2.60742e-05
2.59089e-05
2.57071e-05
2.5482e-05
2.53025e-05
2.52146e-05
2.50311e-05
2.4722e-05
2.44297e-05
2.4162e-05
2.38706e-05
2.35672e-05
2.32555e-05
2.29197e-05
2.25669e-05
2.22055e-05
2.18523e-05
2.14807e-05
2.10894e-05
2.06873e-05
2.03119e-05
1.99287e-05
1.95443e-05
1.91581e-05
1.88014e-05
1.84285e-05
1.80806e-05
1.76822e-05
1.73699e-05
1.69772e-05
1.66786e-05
1.62999e-05
1.5942e-05
1.55869e-05
1.52239e-05
1.48578e-05
1.45012e-05
1.41241e-05
1.37707e-05
1.337e-05
1.29678e-05
1.25428e-05
1.21581e-05
1.17313e-05
1.13098e-05
1.08296e-05
1.03808e-05
9.85453e-06
9.32137e-06
8.73159e-06
8.15075e-06
7.49951e-06
6.88096e-06
6.23545e-06
5.62677e-06
5.00332e-06
4.53938e-06
4.15568e-06
3.70963e-06
3.09631e-06
2.63263e-06
2.47603e-06
2.47169e-06
2.11028e-06
1.63556e-06
1.61744e-06
1.77694e-06
1.60801e-06
1.64091e-06
1.70222e-06
1.54634e-06
1.52783e-06
1.47787e-06
1.25826e-06
1.39344e-06
1.47812e-06
1.36971e-06
1.23671e-06
1.32605e-06
1.35026e-06
8.97616e-07
5.47547e-07
4.29583e-07
3.20549e-06
3.02329e-06
2.16e-06
1.9304e-06
2.13886e-06
1.72049e-06
1.60148e-06
1.72692e-06
1.91616e-06
1.53149e-06
1.6514e-06
2.28861e-06
2.49914e-06
1.55776e-06
8.90845e-07
2.04793e-06
3.48392e-06
3.84111e-06
3.51086e-06
4.01388e-06
5.13403e-06
6.23059e-06
7.04679e-06
7.90703e-06
8.81452e-06
9.93001e-06
1.10356e-05
1.20593e-05
1.30376e-05
1.39787e-05
1.477e-05
1.56518e-05
1.63373e-05
1.7116e-05
1.77893e-05
1.85257e-05
1.91541e-05
1.9718e-05
2.01985e-05
2.07943e-05
2.13054e-05
2.18879e-05
2.23291e-05
2.2952e-05
2.33556e-05
2.38814e-05
2.42343e-05
2.47711e-05
2.51424e-05
2.56656e-05
2.59978e-05
2.65284e-05
2.67599e-05
2.73404e-05
2.7592e-05
2.8188e-05
2.83698e-05
2.89233e-05
2.90455e-05
2.96835e-05
2.97127e-05
3.03838e-05
3.02867e-05
3.11074e-05
3.08858e-05
3.187e-05
3.14437e-05
3.28134e-05
3.19125e-05
3.35968e-05
3.23002e-05
3.44183e-05
3.27169e-05
3.50596e-05
3.32652e-05
3.54544e-05
3.4116e-05
3.55235e-05
3.29273e-05
3.42019e-05
3.84238e-05
4.2733e-05
4.54437e-05
4.68292e-05
4.7588e-05
4.78618e-05
4.78457e-05
4.8091e-05
4.84055e-05
4.82399e-05
4.76971e-05
4.74131e-05
4.74223e-05
4.72725e-05
4.6843e-05
4.64231e-05
4.6138e-05
4.58697e-05
4.559e-05
4.52987e-05
4.5017e-05
4.47385e-05
4.44486e-05
4.42201e-05
4.39605e-05
4.37522e-05
4.347e-05
4.32795e-05
4.29847e-05
4.28293e-05
4.2509e-05
4.24029e-05
4.20588e-05
4.19987e-05
4.1616e-05
4.16061e-05
4.11815e-05
4.1241e-05
4.07824e-05
4.08984e-05
4.03626e-05
4.05079e-05
3.99245e-05
4.01631e-05
3.95671e-05
3.98778e-05
3.92273e-05
3.95821e-05
3.88798e-05
3.92915e-05
3.85781e-05
3.90558e-05
3.83206e-05
3.8818e-05
3.80372e-05
3.85472e-05
3.77635e-05
3.83207e-05
3.7564e-05
3.81476e-05
3.73825e-05
3.79674e-05
3.7201e-05
3.78056e-05
3.70417e-05
3.77026e-05
3.69037e-05
3.76987e-05
3.67326e-05
3.77801e-05
3.66329e-05
3.8018e-05
3.55352e-05
3.88487e-05
3.79403e-05
3.86465e-05
4.24243e-05
4.68309e-05
5.18216e-05
5.28469e-05
5.45523e-05
5.11553e-05
5.08751e-05
5.10742e-05
5.81277e-05
4.26618e-05
1.83811e-05
4.27987e-06
6.65077e-07
1.39587e-07
5.04949e-08
7.80034e-09
2.66467e-08
2.00221e-07
1.85181e-07
1.29351e-07
3.82579e-08
3.14633e-08
6.30174e-08
6.62523e-08
5.28142e-08
4.32135e-08
3.83171e-08
3.20905e-08
3.62989e-08
3.57097e-08
3.47099e-08
3.73613e-08
3.24477e-08
3.91179e-08
4.04454e-08
5.39273e-08
6.5719e-08
6.47646e-08
3.30835e-08
3.83295e-08
1.34841e-07
1.92796e-07
2.14749e-07
3.32301e-08
5.88142e-09
2.38109e-08
7.2565e-08
6.66876e-08
2.68144e-07
3.01503e-06
1.2336e-05
3.35541e-05
4.77896e-05
5.04948e-05
5.0203e-05
4.97981e-05
4.64979e-05
4.45059e-05
4.18e-05
4.00649e-05
3.84976e-05
3.75419e-05
3.70215e-05
3.65432e-05
3.63807e-05
3.61194e-05
3.60976e-05
3.59041e-05
3.59459e-05
3.57703e-05
3.58383e-05
3.56725e-05
3.57594e-05
3.55975e-05
3.5692e-05
3.55269e-05
3.56238e-05
3.54564e-05
3.55607e-05
3.53894e-05
3.54968e-05
3.53157e-05
3.54279e-05
3.52235e-05
3.53612e-05
3.51925e-05
3.53665e-05
3.51582e-05
3.52834e-05
3.50515e-05
3.51795e-05
3.49664e-05
3.50683e-05
3.48618e-05
3.49869e-05
3.4793e-05
3.48983e-05
3.47305e-05
3.48289e-05
3.46537e-05
3.47345e-05
3.45702e-05
3.46319e-05
3.44812e-05
3.45351e-05
3.43763e-05
3.44193e-05
3.42618e-05
3.4292e-05
3.41469e-05
3.4139e-05
3.39739e-05
3.39337e-05
3.37748e-05
3.37254e-05
3.35586e-05
3.34717e-05
3.32921e-05
3.31531e-05
3.29385e-05
3.2773e-05
3.25582e-05
3.23603e-05
3.21091e-05
3.1873e-05
3.15924e-05
3.13179e-05
3.099e-05
3.06613e-05
3.02984e-05
2.99378e-05
2.95341e-05
2.91235e-05
2.87327e-05
2.84055e-05
2.79839e-05
2.74683e-05
2.69415e-05
2.6421e-05
2.58679e-05
2.53085e-05
2.47369e-05
2.41463e-05
2.35208e-05
2.2901e-05
2.22906e-05
2.16773e-05
2.10227e-05
2.03894e-05
1.97893e-05
1.92124e-05
1.86073e-05
1.80542e-05
1.75e-05
1.69769e-05
1.64397e-05
1.59034e-05
1.54258e-05
1.49009e-05
1.44636e-05
1.39036e-05
1.34118e-05
1.28754e-05
1.2378e-05
1.18305e-05
1.1338e-05
1.07795e-05
1.02696e-05
9.65594e-06
9.05602e-06
8.42904e-06
7.85516e-06
7.22675e-06
6.59097e-06
5.89381e-06
5.24154e-06
4.5275e-06
3.84829e-06
3.20897e-06
2.67644e-06
2.20099e-06
1.92386e-06
1.71359e-06
1.58333e-06
1.41466e-06
1.40551e-06
1.36193e-06
1.32479e-06
1.21958e-06
1.18117e-06
1.19447e-06
1.37598e-06
1.36981e-06
1.36977e-06
1.39058e-06
1.34372e-06
1.21066e-06
1.25603e-06
1.13908e-06
1.11394e-06
1.12365e-06
1.09033e-06
1.04049e-06
9.93315e-07
8.73026e-07
8.97867e-07
9.14568e-07
6.98359e-07
9.02089e-07
9.68855e-07
4.74118e-07
1.27779e-06
2.69561e-06
2.23274e-06
1.83269e-06
1.90967e-06
1.89382e-06
2.06282e-06
1.98044e-06
1.85252e-06
1.82571e-06
2.07928e-06
1.89578e-06
1.98073e-06
2.07851e-06
1.91947e-06
1.52389e-06
1.82168e-06
2.08041e-06
1.86703e-06
1.68654e-06
1.89044e-06
2.0951e-06
2.31696e-06
2.48753e-06
2.75246e-06
2.92063e-06
3.38733e-06
3.94308e-06
4.45768e-06
5.06493e-06
5.81822e-06
6.43235e-06
7.33934e-06
8.04155e-06
8.95155e-06
9.83009e-06
1.0918e-05
1.19494e-05
1.29165e-05
1.37566e-05
1.47813e-05
1.5692e-05
1.66898e-05
1.74428e-05
1.84712e-05
1.91925e-05
2.00704e-05
2.06854e-05
2.15553e-05
2.22046e-05
2.30956e-05
2.37238e-05
2.46333e-05
2.50875e-05
2.60456e-05
2.64907e-05
2.7449e-05
2.78046e-05
2.86906e-05
2.89117e-05
2.99287e-05
3.00264e-05
3.10733e-05
3.09806e-05
3.22163e-05
3.19244e-05
3.33952e-05
3.28395e-05
3.47228e-05
3.37264e-05
3.5861e-05
3.44975e-05
3.6996e-05
3.53201e-05
3.78908e-05
3.62619e-05
3.85476e-05
3.73682e-05
3.95436e-05
3.76545e-05
3.88425e-05
4.3384e-05
4.85884e-05
5.26621e-05
5.53871e-05
5.72754e-05
5.85042e-05
5.92572e-05
6.01213e-05
6.10146e-05
6.13693e-05
6.12031e-05
6.11888e-05
6.15023e-05
6.16659e-05
6.14726e-05
6.12095e-05
6.10722e-05
6.09601e-05
6.08245e-05
6.06678e-05
6.04977e-05
6.03325e-05
6.01326e-05
6.00038e-05
5.98323e-05
5.97241e-05
5.95187e-05
5.94129e-05
5.9182e-05
5.90989e-05
5.88383e-05
5.87921e-05
5.85046e-05
5.84913e-05
5.81694e-05
5.8183e-05
5.78237e-05
5.78844e-05
5.7506e-05
5.75962e-05
5.71533e-05
5.72317e-05
5.67479e-05
5.68837e-05
5.64206e-05
5.66047e-05
5.61242e-05
5.6316e-05
5.5814e-05
5.6023e-05
5.5544e-05
5.57829e-05
5.53196e-05
5.55472e-05
5.507e-05
5.52746e-05
5.48183e-05
5.50363e-05
5.46312e-05
5.48568e-05
5.4473e-05
5.46852e-05
5.43203e-05
5.45332e-05
5.42e-05
5.44294e-05
5.41193e-05
5.43834e-05
5.40747e-05
5.43529e-05
5.40668e-05
5.43236e-05
5.35274e-05
5.47521e-05
5.56505e-05
5.67043e-05
5.97108e-05
5.97172e-05
6.39147e-05
6.48567e-05
6.89249e-05
6.41062e-05
6.18388e-05
5.45194e-05
6.05365e-05
4.75436e-05
2.23566e-05
5.57188e-06
1.00567e-06
1.68167e-07
5.83677e-08
8.50785e-09
2.54259e-08
1.97736e-07
1.82554e-07
1.27349e-07
3.98372e-08
3.31859e-08
6.42099e-08
6.56806e-08
5.2757e-08
4.27337e-08
3.81713e-08
3.27488e-08
3.65288e-08
3.60006e-08
3.53594e-08
3.76129e-08
3.29765e-08
3.94094e-08
3.98238e-08
5.39416e-08
6.58085e-08
6.57894e-08
3.55293e-08
3.94595e-08
1.35482e-07
1.94429e-07
2.17272e-07
3.49632e-08
6.0175e-09
2.20067e-08
6.7198e-08
5.37221e-08
1.41261e-07
1.98491e-06
8.78915e-06
2.73227e-05
4.39869e-05
4.93226e-05
4.97875e-05
5.10697e-05
4.8867e-05
4.79368e-05
4.62117e-05
4.51041e-05
4.41417e-05
4.34629e-05
4.30016e-05
4.26445e-05
4.24397e-05
4.22211e-05
4.21434e-05
4.19913e-05
4.1971e-05
4.18475e-05
4.18519e-05
4.17396e-05
4.17587e-05
4.16485e-05
4.16756e-05
4.1561e-05
4.15927e-05
4.14734e-05
4.15081e-05
4.13848e-05
4.14207e-05
4.12878e-05
4.13269e-05
4.11794e-05
4.12389e-05
4.11071e-05
4.11863e-05
4.1019e-05
4.10663e-05
4.08761e-05
4.09234e-05
4.07333e-05
4.07689e-05
4.05767e-05
4.06276e-05
4.04388e-05
4.04778e-05
4.02979e-05
4.03274e-05
4.01351e-05
4.01476e-05
3.99543e-05
3.99495e-05
3.97558e-05
3.97391e-05
3.95305e-05
3.94994e-05
3.92807e-05
3.92314e-05
3.90095e-05
3.8917e-05
3.8669e-05
3.85382e-05
3.82824e-05
3.81275e-05
3.78519e-05
3.76505e-05
3.73485e-05
3.70865e-05
3.67421e-05
3.64388e-05
3.60719e-05
3.57199e-05
3.53053e-05
3.49009e-05
3.44397e-05
3.39784e-05
3.34553e-05
3.29304e-05
3.23608e-05
3.17972e-05
3.11895e-05
3.0589e-05
2.99583e-05
2.93601e-05
2.87028e-05
2.80001e-05
2.72409e-05
2.64732e-05
2.56653e-05
2.48657e-05
2.40508e-05
2.32304e-05
2.23527e-05
2.15068e-05
2.06691e-05
1.98496e-05
1.8961e-05
1.81408e-05
1.73472e-05
1.66125e-05
1.58021e-05
1.51137e-05
1.43623e-05
1.3711e-05
1.29877e-05
1.23409e-05
1.1696e-05
1.10766e-05
1.04774e-05
9.75498e-06
9.10816e-06
8.38361e-06
7.74456e-06
7.02736e-06
6.45533e-06
5.75924e-06
5.17146e-06
4.43323e-06
3.89187e-06
3.42786e-06
3.09232e-06
2.60866e-06
2.20385e-06
1.79384e-06
1.51559e-06
1.12247e-06
9.37571e-07
8.33364e-07
8.32424e-07
8.04513e-07
9.43112e-07
1.0159e-06
1.15452e-06
1.13042e-06
1.2391e-06
1.25715e-06
1.32694e-06
1.26591e-06
1.29134e-06
1.32362e-06
1.46437e-06
1.44533e-06
1.45489e-06
1.36898e-06
1.37474e-06
1.38377e-06
1.44645e-06
1.38007e-06
1.33641e-06
1.21717e-06
1.14141e-06
1.14213e-06
1.08836e-06
1.07189e-06
8.06415e-07
7.20182e-07
4.1372e-07
6.73805e-07
1.20679e-06
7.59014e-07
5.8718e-07
2.8499e-06
2.12293e-06
1.76778e-06
2.04086e-06
1.62432e-06
1.80861e-06
1.68037e-06
1.8662e-06
1.60407e-06
1.74035e-06
1.63445e-06
1.81096e-06
1.71406e-06
1.78457e-06
1.74874e-06
1.8252e-06
1.76647e-06
1.7586e-06
1.75533e-06
1.85983e-06
1.79533e-06
1.96123e-06
1.93051e-06
2.13633e-06
2.12706e-06
2.26392e-06
2.32909e-06
2.51579e-06
2.54506e-06
2.89735e-06
2.93722e-06
3.35968e-06
3.44685e-06
3.84906e-06
4.08468e-06
4.5941e-06
5.14938e-06
5.7829e-06
6.26874e-06
7.16494e-06
8.04347e-06
9.18008e-06
1.00215e-05
1.13489e-05
1.23288e-05
1.35231e-05
1.4366e-05
1.55212e-05
1.64365e-05
1.76513e-05
1.85587e-05
1.98593e-05
2.05318e-05
2.18699e-05
2.2542e-05
2.38763e-05
2.4426e-05
2.56461e-05
2.59884e-05
2.73837e-05
2.75877e-05
2.90018e-05
2.89738e-05
3.05694e-05
3.03172e-05
3.21448e-05
3.16461e-05
3.38088e-05
3.29703e-05
3.52705e-05
3.4175e-05
3.67074e-05
3.54145e-05
3.79337e-05
3.66598e-05
3.90552e-05
3.77817e-05
4.06865e-05
3.97813e-05
4.13835e-05
4.575e-05
5.09592e-05
5.57593e-05
5.95423e-05
6.24912e-05
6.47332e-05
6.64032e-05
6.79843e-05
6.94798e-05
7.04515e-05
7.08611e-05
7.12812e-05
7.19538e-05
7.24873e-05
7.26537e-05
7.26872e-05
7.27997e-05
7.29275e-05
7.30167e-05
7.30754e-05
7.30982e-05
7.31208e-05
7.30889e-05
7.31218e-05
7.31023e-05
7.31489e-05
7.30831e-05
7.31149e-05
7.30103e-05
7.30491e-05
7.29077e-05
7.29678e-05
7.2794e-05
7.28689e-05
7.26597e-05
7.27416e-05
7.24962e-05
7.25996e-05
7.23376e-05
7.24505e-05
7.21311e-05
7.22028e-05
7.18397e-05
7.1936e-05
7.16023e-05
7.173e-05
7.13956e-05
7.1515e-05
7.11709e-05
7.12859e-05
7.09706e-05
7.11009e-05
7.08108e-05
7.09219e-05
7.06255e-05
7.07052e-05
7.04285e-05
7.0508e-05
7.02751e-05
7.03655e-05
7.01583e-05
7.02385e-05
7.00492e-05
7.01285e-05
6.9965e-05
7.00558e-05
6.99156e-05
7.00195e-05
6.98918e-05
6.99949e-05
6.9867e-05
6.99669e-05
6.96719e-05
7.01523e-05
7.09558e-05
7.22004e-05
7.43269e-05
7.52627e-05
7.59608e-05
7.65228e-05
8.12245e-05
7.67467e-05
7.60154e-05
6.2254e-05
6.44672e-05
5.27382e-05
2.68359e-05
7.17861e-06
1.42858e-06
2.10076e-07
6.45148e-08
8.69851e-09
2.49666e-08
1.9665e-07
1.8119e-07
1.27283e-07
3.86656e-08
3.08662e-08
6.30539e-08
6.62889e-08
5.21733e-08
4.41041e-08
3.80838e-08
3.23795e-08
3.64154e-08
3.52653e-08
3.48603e-08
3.72189e-08
3.28487e-08
3.96873e-08
3.96949e-08
5.4238e-08
6.54327e-08
6.54321e-08
3.35839e-08
3.87365e-08
1.36415e-07
1.9557e-07
2.20051e-07
3.59807e-08
5.62727e-09
1.91723e-08
6.27109e-08
4.47987e-08
8.07274e-08
1.19285e-06
5.89468e-06
2.09753e-05
3.89435e-05
4.71857e-05
4.83777e-05
5.10658e-05
5.00122e-05
4.98784e-05
4.89607e-05
4.83753e-05
4.78339e-05
4.74068e-05
4.71143e-05
4.6853e-05
4.66908e-05
4.65245e-05
4.64411e-05
4.63252e-05
4.62872e-05
4.61935e-05
4.61778e-05
4.60925e-05
4.60873e-05
4.60037e-05
4.60022e-05
4.59157e-05
4.59149e-05
4.58243e-05
4.5822e-05
4.5727e-05
4.57219e-05
4.56185e-05
4.5614e-05
4.54995e-05
4.55039e-05
4.5392e-05
4.54039e-05
4.52643e-05
4.5253e-05
4.50922e-05
4.50753e-05
4.49041e-05
4.48794e-05
4.46983e-05
4.46784e-05
4.44925e-05
4.44606e-05
4.42691e-05
4.42236e-05
4.40141e-05
4.39494e-05
4.37284e-05
4.36441e-05
4.34085e-05
4.33072e-05
4.30495e-05
4.2928e-05
4.26477e-05
4.25011e-05
4.2202e-05
4.20087e-05
4.1676e-05
4.14379e-05
4.10807e-05
4.08033e-05
4.04139e-05
4.00824e-05
3.96538e-05
3.9256e-05
3.87764e-05
3.83194e-05
3.77923e-05
3.72719e-05
3.66854e-05
3.60989e-05
3.54478e-05
3.47884e-05
3.40638e-05
3.33352e-05
3.25557e-05
3.17872e-05
3.09753e-05
3.01795e-05
2.92895e-05
2.84166e-05
2.75404e-05
2.66662e-05
2.56835e-05
2.46864e-05
2.36409e-05
2.26276e-05
2.15954e-05
2.05749e-05
1.94706e-05
1.84347e-05
1.73969e-05
1.64003e-05
1.53025e-05
1.43321e-05
1.33681e-05
1.25063e-05
1.15027e-05
1.06976e-05
9.73674e-06
8.95225e-06
8.00832e-06
7.24806e-06
6.42836e-06
5.76838e-06
5.04566e-06
4.24812e-06
3.5917e-06
3.01644e-06
2.66383e-06
2.28807e-06
2.09186e-06
1.67119e-06
1.41713e-06
9.88269e-07
1.08142e-06
1.08923e-06
1.08729e-06
8.05072e-07
7.41498e-07
5.53096e-07
5.65615e-07
3.72954e-07
4.60612e-07
4.63612e-07
5.84559e-07
6.31397e-07
7.63169e-07
8.29046e-07
9.72373e-07
9.34009e-07
1.04362e-06
1.05774e-06
1.1053e-06
1.06544e-06
1.10137e-06
1.19751e-06
1.27732e-06
1.31053e-06
1.24311e-06
1.19011e-06
1.13173e-06
1.17567e-06
1.09525e-06
1.0885e-06
1.00347e-06
1.05958e-06
9.95141e-07
1.12835e-06
9.84144e-07
1.03354e-06
8.48557e-07
8.71645e-07
5.41948e-07
3.05781e-07
6.83168e-07
2.90001e-07
7.60834e-07
2.36588e-06
1.61052e-06
1.65e-06
1.95241e-06
1.6143e-06
1.59544e-06
1.41623e-06
1.56495e-06
1.44802e-06
1.50716e-06
1.44014e-06
1.52844e-06
1.3868e-06
1.47819e-06
1.49167e-06
1.57118e-06
1.46699e-06
1.56687e-06
1.57001e-06
1.72109e-06
1.63762e-06
1.79689e-06
1.6933e-06
1.84964e-06
1.71655e-06
1.94693e-06
1.86338e-06
2.11284e-06
2.02521e-06
2.30868e-06
2.19338e-06
2.47936e-06
2.36077e-06
2.59725e-06
2.60094e-06
2.72372e-06
2.70617e-06
2.96512e-06
2.80999e-06
3.07864e-06
3.20117e-06
3.8071e-06
3.85321e-06
4.70182e-06
5.25004e-06
6.20825e-06
6.7466e-06
7.78357e-06
8.60491e-06
9.97338e-06
1.10279e-05
1.27139e-05
1.36114e-05
1.53628e-05
1.627e-05
1.79992e-05
1.87605e-05
2.03165e-05
2.07892e-05
2.25265e-05
2.28852e-05
2.46159e-05
2.47382e-05
2.6601e-05
2.65213e-05
2.85584e-05
2.82909e-05
3.0568e-05
3.00864e-05
3.23289e-05
3.17202e-05
3.4083e-05
3.33549e-05
3.56893e-05
3.48718e-05
3.72802e-05
3.61519e-05
3.94444e-05
3.97544e-05
4.2281e-05
4.61856e-05
5.09179e-05
5.58029e-05
6.01978e-05
6.39799e-05
6.71583e-05
6.97863e-05
7.21419e-05
7.42501e-05
7.58866e-05
7.70041e-05
7.79937e-05
7.90868e-05
8.00339e-05
8.06451e-05
8.10846e-05
8.15345e-05
8.19736e-05
8.23535e-05
8.26918e-05
8.29716e-05
8.32411e-05
8.34382e-05
8.36851e-05
8.38653e-05
8.41065e-05
8.42272e-05
8.4435e-05
8.45021e-05
8.46986e-05
8.4717e-05
8.49151e-05
8.48944e-05
8.50891e-05
8.5028e-05
8.52117e-05
8.511e-05
8.52926e-05
8.51671e-05
8.53403e-05
8.51598e-05
8.52733e-05
8.5044e-05
8.51543e-05
8.49465e-05
8.50736e-05
8.48678e-05
8.49768e-05
8.47638e-05
8.48583e-05
8.46661e-05
8.4765e-05
8.45962e-05
8.46748e-05
8.44991e-05
8.45478e-05
8.43832e-05
8.44253e-05
8.42919e-05
8.43422e-05
8.42292e-05
8.42751e-05
8.41756e-05
8.42186e-05
8.41358e-05
8.41829e-05
8.41159e-05
8.4162e-05
8.41021e-05
8.41405e-05
8.40753e-05
8.41175e-05
8.40145e-05
8.42442e-05
8.47734e-05
8.57683e-05
8.74371e-05
8.87545e-05
8.99674e-05
8.80038e-05
9.17197e-05
8.77397e-05
9.00011e-05
7.35458e-05
7.08529e-05
5.86949e-05
3.19401e-05
9.11534e-06
1.94822e-06
2.73598e-07
7.5851e-08
9.45469e-09
2.35708e-08
1.93844e-07
1.79081e-07
1.25381e-07
3.97056e-08
3.28515e-08
6.39438e-08
6.58774e-08
5.23432e-08
4.32599e-08
3.75611e-08
3.32352e-08
3.69091e-08
3.57276e-08
3.50186e-08
3.7406e-08
3.39021e-08
4.01139e-08
3.95543e-08
5.41349e-08
6.56833e-08
6.63861e-08
3.60561e-08
3.96096e-08
1.38731e-07
1.94729e-07
2.24273e-07
3.75597e-08
5.77379e-09
1.72028e-08
5.96884e-08
3.88382e-08
5.50575e-08
6.26573e-07
3.66845e-06
1.50088e-05
3.27969e-05
4.39898e-05
4.60839e-05
4.9771e-05
4.99012e-05
5.03734e-05
5.01485e-05
4.99806e-05
4.97867e-05
4.95982e-05
4.94672e-05
4.93304e-05
4.92423e-05
4.91465e-05
4.90903e-05
4.90209e-05
4.89865e-05
4.89299e-05
4.89073e-05
4.88541e-05
4.88367e-05
4.87819e-05
4.87651e-05
4.87055e-05
4.8687e-05
4.8621e-05
4.85987e-05
4.85263e-05
4.8498e-05
4.84163e-05
4.83844e-05
4.82916e-05
4.82582e-05
4.81597e-05
4.81238e-05
4.80033e-05
4.79483e-05
4.78076e-05
4.77406e-05
4.75832e-05
4.75049e-05
4.73311e-05
4.72458e-05
4.70587e-05
4.69563e-05
4.67511e-05
4.66289e-05
4.63995e-05
4.6254e-05
4.60025e-05
4.58323e-05
4.55533e-05
4.5359e-05
4.50507e-05
4.48279e-05
4.44843e-05
4.42286e-05
4.38517e-05
4.35447e-05
4.31262e-05
4.27676e-05
4.23062e-05
4.1894e-05
4.13885e-05
4.09156e-05
4.03589e-05
3.98149e-05
3.91968e-05
3.85739e-05
3.78829e-05
3.71835e-05
3.6421e-05
3.56428e-05
3.47983e-05
3.39348e-05
3.30077e-05
3.2074e-05
3.10869e-05
3.01161e-05
2.91033e-05
2.81108e-05
2.6959e-05
2.58292e-05
2.47578e-05
2.37286e-05
2.25412e-05
2.13431e-05
2.00879e-05
1.88971e-05
1.76782e-05
1.64889e-05
1.51811e-05
1.3982e-05
1.27487e-05
1.15676e-05
1.02245e-05
9.05407e-06
7.83984e-06
6.82785e-06
5.63421e-06
4.81973e-06
3.7734e-06
3.17957e-06
2.32033e-06
2.07357e-06
1.49072e-06
1.44475e-06
8.62434e-07
7.0297e-07
4.68845e-07
7.28419e-07
6.06371e-07
8.61913e-07
6.29416e-07
6.09652e-07
3.6959e-07
4.91244e-07
5.29671e-07
8.05291e-07
6.12253e-07
6.65221e-07
3.9962e-07
4.85882e-07
3.19488e-07
3.7359e-07
3.30615e-07
5.37823e-07
4.89071e-07
7.35671e-07
6.46077e-07
9.33452e-07
8.28843e-07
9.8109e-07
9.2123e-07
1.10369e-06
9.64269e-07
1.04315e-06
9.7652e-07
1.2344e-06
1.11961e-06
1.1901e-06
9.42469e-07
1.02332e-06
9.00777e-07
1.09122e-06
9.22894e-07
1.00462e-06
7.90944e-07
8.45409e-07
7.28875e-07
8.94875e-07
7.90004e-07
9.46002e-07
8.29239e-07
7.19252e-07
6.41217e-07
3.20688e-07
8.60441e-07
7.06489e-07
6.50745e-07
2.51952e-06
1.79501e-06
1.87653e-06
1.85558e-06
1.38827e-06
1.52695e-06
1.29766e-06
1.30011e-06
1.23665e-06
1.28683e-06
1.24163e-06
1.22351e-06
1.16097e-06
1.26969e-06
1.20395e-06
1.21475e-06
1.18672e-06
1.33051e-06
1.31661e-06
1.47079e-06
1.42568e-06
1.65224e-06
1.59578e-06
1.78152e-06
1.62486e-06
1.84684e-06
1.67786e-06
1.95611e-06
1.81068e-06
2.08732e-06
1.93163e-06
2.19468e-06
1.99088e-06
2.26005e-06
2.13661e-06
2.36765e-06
2.11633e-06
2.38638e-06
2.05461e-06
2.31023e-06
1.88034e-06
2.36959e-06
1.7779e-06
2.25189e-06
2.03992e-06
2.61066e-06
2.37886e-06
2.98496e-06
2.99643e-06
3.76946e-06
3.98073e-06
5.34814e-06
5.75526e-06
7.50857e-06
8.38067e-06
1.03987e-05
1.13257e-05
1.3177e-05
1.37958e-05
1.58181e-05
1.63752e-05