/*--------------------------------*- C++ -*----------------------------------*\
| =========                 |                                                 |
| \\      /  F ield         | OpenFOAM: The Open Source CFD Toolbox           |
|  \\    /   O peration     | Version:  v2006                                 |
|   \\  /    A nd           | Website:  www.openfoam.com                      |
|    \\/     M anipulation  |                                                 |
\*---------------------------------------------------------------------------*/
FoamFile
{
    version     2.0;
    format      ascii;
    class       volScalarField;
    location    "185";
    object      nuTildaMean;
}
// * * * * * * * * * * * * * * * * * * * * * * * * * * * * * * * * * * * * * //

dimensions      [0 2 -1 0 0 0 0];


internalField   nonuniform List<scalar> 
93840
(
4.01205e-07
4.01838e-07
4.02685e-07
4.02572e-07
4.02976e-07
4.0304e-07
4.041e-07
4.0367e-07
4.04948e-07
4.09382e-07
4.14055e-07
4.1245e-07
4.12241e-07
4.1168e-07
4.08361e-07
4.0681e-07
4.15699e-07
5.14286e-07
1.19338e-06
4.05201e-06
9.77627e-06
1.48313e-05
1.70303e-05
1.81874e-05
1.7005e-05
1.48654e-05
1.35354e-05
1.26862e-05
1.23075e-05
1.18692e-05
1.12343e-05
1.05191e-05
1.10354e-05
1.02859e-05
1.05118e-05
1.01606e-05
1.01127e-05
1.00077e-05
9.80019e-06
9.79451e-06
9.57059e-06
9.57904e-06
9.36294e-06
9.36588e-06
9.1742e-06
9.14201e-06
8.9846e-06
8.94267e-06
8.8013e-06
8.76997e-06
8.6307e-06
8.5915e-06
8.46802e-06
8.42534e-06
8.34809e-06
8.36219e-06
8.25913e-06
8.24659e-06
8.12188e-06
8.08559e-06
8.04987e-06
7.97413e-06
7.92254e-06
7.88793e-06
7.83538e-06
7.84524e-06
7.85558e-06
7.88623e-06
7.89624e-06
7.89214e-06
7.89558e-06
7.91381e-06
7.9445e-06
7.99924e-06
8.05695e-06
8.08702e-06
8.12857e-06
8.18156e-06
8.25698e-06
8.35382e-06
8.43145e-06
8.50186e-06
8.59246e-06
8.71558e-06
8.84358e-06
8.95284e-06
9.08195e-06
9.17896e-06
9.29748e-06
9.42126e-06
9.57075e-06
9.72121e-06
9.87924e-06
1.00557e-05
1.025e-05
1.04371e-05
1.0599e-05
1.08134e-05
1.10295e-05
1.12578e-05
1.1513e-05
1.17871e-05
1.21013e-05
1.25955e-05
1.30558e-05
1.3266e-05
1.34371e-05
1.37977e-05
1.41734e-05
1.45285e-05
1.48844e-05
1.52358e-05
1.55781e-05
1.5984e-05
1.63543e-05
1.67294e-05
1.70795e-05
1.74818e-05
1.78131e-05
1.81636e-05
1.84517e-05
1.87733e-05
1.89425e-05
1.91584e-05
1.91633e-05
1.92077e-05
1.93079e-05
1.91213e-05
1.92478e-05
1.91457e-05
1.90575e-05
1.89869e-05
1.88764e-05
1.8848e-05
1.87774e-05
1.87023e-05
1.8597e-05
1.85525e-05
1.84807e-05
1.84616e-05
1.8421e-05
1.83765e-05
1.82972e-05
1.82615e-05
1.82227e-05
1.81925e-05
1.816e-05
1.81222e-05
1.80578e-05
1.79872e-05
1.79241e-05
1.78563e-05
1.77735e-05
1.76819e-05
1.75747e-05
1.74629e-05
1.73298e-05
1.71843e-05
1.70081e-05
1.68434e-05
1.66924e-05
1.65267e-05
1.63109e-05
1.60796e-05
1.58039e-05
1.5484e-05
1.50873e-05
1.45943e-05
1.38548e-05
1.26819e-05
1.09413e-05
8.859e-06
6.93816e-06
5.61785e-06
4.52997e-06
3.44822e-06
2.38614e-06
1.36964e-06
9.95499e-07
8.47375e-07
7.48311e-07
4.16332e-07
4.00467e-07
6.68405e-07
8.0643e-07
9.70671e-07
1.48672e-06
2.58972e-06
4.09489e-06
5.89537e-06
9.34875e-06
1.20673e-05
1.40739e-05
1.70749e-05
2.09747e-05
2.39366e-05
2.56471e-05
2.64072e-05
2.66338e-05
2.66273e-05
2.64429e-05
2.62217e-05
2.60278e-05
2.58555e-05
2.57055e-05
2.55431e-05
2.53971e-05
2.52684e-05
2.5158e-05
2.50523e-05
2.50223e-05
2.50007e-05
2.49592e-05
2.49159e-05
2.4848e-05
2.47292e-05
2.46163e-05
2.4517e-05
2.44192e-05
2.43448e-05
2.43805e-05
2.4329e-05
2.41557e-05
2.39378e-05
2.36934e-05
2.34236e-05
2.3179e-05
2.29444e-05
2.27564e-05
2.25877e-05
2.25737e-05
2.26879e-05
2.26431e-05
2.26169e-05
2.24761e-05
2.22617e-05
2.2038e-05
2.18048e-05
2.15853e-05
2.1391e-05
2.12299e-05
2.10827e-05
2.09076e-05
2.07415e-05
2.05434e-05
2.03525e-05
2.01783e-05
2.00511e-05
1.97405e-05
1.97148e-05
1.96715e-05
1.9411e-05
1.92373e-05
1.90015e-05
1.87665e-05
1.8469e-05
1.82203e-05
1.79518e-05
1.76244e-05
1.72367e-05
1.68543e-05
1.64122e-05
1.59933e-05
1.5619e-05
1.52197e-05
1.47545e-05
1.44393e-05
1.40308e-05
1.35527e-05
1.30795e-05
1.28956e-05
1.2764e-05
1.24113e-05
1.19452e-05
1.16944e-05
1.1513e-05
1.1178e-05
1.07924e-05
1.0443e-05
1.01784e-05
9.92631e-06
9.65886e-06
9.38023e-06
9.10624e-06
8.83271e-06
8.53676e-06
8.32174e-06
8.1295e-06
7.92595e-06
7.73649e-06
7.52957e-06
7.31955e-06
7.11915e-06
6.96038e-06
6.81322e-06
6.62779e-06
6.43931e-06
6.28492e-06
6.08962e-06
5.85622e-06
5.62139e-06
5.38491e-06
5.11087e-06
4.97468e-06
4.61497e-06
4.39754e-06
4.23726e-06
4.09541e-06
3.99321e-06
3.9452e-06
3.95929e-06
3.86938e-06
3.82531e-06
3.80626e-06
3.79276e-06
3.65945e-06
3.5149e-06
3.38636e-06
3.36212e-06
3.26271e-06
3.23465e-06
3.05622e-06
3.07059e-06
2.86587e-06
3.05738e-06
2.90742e-06
3.05456e-06
2.88154e-06
3.05161e-06
2.81453e-06
3.0608e-06
2.89934e-06
3.22293e-06
3.16196e-06
3.89868e-06
3.48489e-06
6.88704e-06
9.55071e-06
1.19389e-05
1.36581e-05
1.43995e-05
1.48046e-05
1.43963e-05
1.55705e-05
1.76682e-05
1.74456e-05
1.57548e-05
1.10308e-05
4.90695e-06
1.45406e-06
5.62485e-07
4.24606e-07
4.09461e-07
4.08801e-07
4.1183e-07
4.12204e-07
4.12283e-07
4.14061e-07
4.09482e-07
4.04998e-07
4.03746e-07
4.04143e-07
4.03116e-07
4.02913e-07
4.02552e-07
4.02351e-07
4.01602e-07
4.0094e-07
4.00749e-07
4.01438e-07
4.02317e-07
4.02529e-07
4.02856e-07
4.03091e-07
4.04062e-07
4.03703e-07
4.0483e-07
4.09301e-07
4.13878e-07
4.12257e-07
4.12109e-07
4.11724e-07
4.08498e-07
4.08566e-07
4.16876e-07
4.8028e-07
9.4869e-07
3.18521e-06
8.36584e-06
1.37223e-05
1.63966e-05
1.82549e-05
1.82923e-05
1.71217e-05
1.54983e-05
1.38211e-05
1.28456e-05
1.20098e-05
1.15039e-05
1.10704e-05
1.09363e-05
1.09006e-05
1.10627e-05
1.08677e-05
1.11131e-05
1.08477e-05
1.11392e-05
1.08537e-05
1.11679e-05
1.08445e-05
1.11167e-05
1.08661e-05
1.1122e-05
1.08805e-05
1.11491e-05
1.08664e-05
1.11329e-05
1.09406e-05
1.1136e-05
1.08945e-05
1.11821e-05
1.09546e-05
1.11759e-05
1.10327e-05
1.1184e-05
1.11222e-05
1.12138e-05
1.11516e-05
1.12656e-05
1.11728e-05
1.13032e-05
1.12578e-05
1.13659e-05
1.13475e-05
1.14564e-05
1.14511e-05
1.15616e-05
1.15708e-05
1.16955e-05
1.17336e-05
1.18297e-05
1.19028e-05
1.20422e-05
1.21554e-05
1.23072e-05
1.24425e-05
1.25707e-05
1.27221e-05
1.29078e-05
1.30694e-05
1.32382e-05
1.34105e-05
1.3583e-05
1.38e-05
1.40242e-05
1.42039e-05
1.43981e-05
1.46076e-05
1.47626e-05
1.49294e-05
1.51054e-05
1.53115e-05
1.55038e-05
1.5666e-05
1.58609e-05
1.60382e-05
1.62074e-05
1.63744e-05
1.65897e-05
1.67709e-05
1.69707e-05
1.72029e-05
1.74001e-05
1.75934e-05
1.77217e-05
1.78965e-05
1.8081e-05
1.82021e-05
1.83307e-05
1.84456e-05
1.85277e-05
1.86122e-05
1.86664e-05
1.87169e-05
1.87356e-05
1.87493e-05
1.87202e-05
1.86985e-05
1.86223e-05
1.85599e-05
1.84339e-05
1.83406e-05
1.81743e-05
1.80745e-05
1.78771e-05
1.77487e-05
1.75796e-05
1.73941e-05
1.72464e-05
1.70671e-05
1.69178e-05
1.67473e-05
1.65779e-05
1.64126e-05
1.62483e-05
1.60918e-05
1.59202e-05
1.57604e-05
1.55755e-05
1.54066e-05
1.52271e-05
1.50594e-05
1.48675e-05
1.46816e-05
1.44716e-05
1.42616e-05
1.40347e-05
1.3812e-05
1.35665e-05
1.33082e-05
1.30271e-05
1.27232e-05
1.23856e-05
1.20112e-05
1.1585e-05
1.1109e-05
1.05732e-05
9.97279e-06
9.27872e-06
8.51057e-06
7.68913e-06
6.83504e-06
5.93211e-06
5.01559e-06
4.12865e-06
3.32348e-06
2.57954e-06
1.92337e-06
1.40853e-06
1.09489e-06
8.18006e-07
6.10432e-07
4.22952e-07
3.9025e-07
3.75877e-07
3.85775e-07
4.10607e-07
4.34146e-07
4.33256e-07
5.1767e-07
4.85053e-07
5.81517e-07
5.28323e-07
5.74873e-07
5.26027e-07
5.51168e-07
5.38599e-07
7.17452e-07
1.04098e-06
1.38188e-06
1.99894e-06
2.46599e-06
3.25446e-06
4.49551e-06
5.81481e-06
7.05028e-06
8.41055e-06
9.86626e-06
1.12638e-05
1.25249e-05
1.36585e-05
1.46988e-05
1.56295e-05
1.64389e-05
1.71306e-05
1.76951e-05
1.81614e-05
1.85465e-05
1.88548e-05
1.91316e-05
1.93704e-05
1.95878e-05
1.97884e-05
1.99774e-05
2.01468e-05
2.02967e-05
2.04421e-05
2.05693e-05
2.06926e-05
2.08357e-05
2.09814e-05
2.11103e-05
2.12297e-05
2.13262e-05
2.14093e-05
2.1474e-05
2.15336e-05
2.15951e-05
2.16315e-05
2.16864e-05
2.17671e-05
2.18456e-05
2.19472e-05
2.203e-05
2.21138e-05
2.21748e-05
2.22251e-05
2.22716e-05
2.22944e-05
2.2347e-05
2.23549e-05
2.24043e-05
2.24014e-05
2.24355e-05
2.24351e-05
2.24261e-05
2.24692e-05
2.24371e-05
2.24203e-05
2.23631e-05
2.23439e-05
2.22909e-05
2.22659e-05
2.22342e-05
2.21948e-05
2.2091e-05
2.20085e-05
2.18884e-05
2.17605e-05
2.15963e-05
2.14381e-05
2.12444e-05
2.10251e-05
2.08529e-05
2.07029e-05
2.0402e-05
2.01058e-05
1.99234e-05
1.97214e-05
1.94836e-05
1.91134e-05
1.88372e-05
1.86241e-05
1.83982e-05
1.7963e-05
1.76338e-05
1.73707e-05
1.70623e-05
1.67533e-05
1.64354e-05
1.61244e-05
1.58534e-05
1.5594e-05
1.53311e-05
1.51616e-05
1.50211e-05
1.48331e-05
1.46578e-05
1.44244e-05
1.41471e-05
1.38998e-05
1.35278e-05
1.31582e-05
1.27302e-05
1.22924e-05
1.18693e-05
1.14947e-05
1.10706e-05
1.06586e-05
1.02705e-05
9.91875e-06
9.70068e-06
9.38147e-06
9.04019e-06
8.65214e-06
8.64451e-06
8.71782e-06
8.7592e-06
8.74262e-06
8.69841e-06
8.66618e-06
8.67929e-06
8.58279e-06
8.39828e-06
8.10325e-06
7.81207e-06
7.53109e-06
7.20682e-06
6.92635e-06
6.53332e-06
6.33198e-06
5.9033e-06
5.94277e-06
5.63909e-06
5.6576e-06
5.54944e-06
5.5945e-06
5.68278e-06
5.82357e-06
5.97042e-06
6.57716e-06
7.19839e-06
7.88128e-06
9.15165e-06
1.03545e-05
1.14748e-05
1.34727e-05
1.63088e-05
1.79978e-05
1.92904e-05
1.82984e-05
1.61037e-05
1.70858e-05
1.74966e-05
1.65839e-05
1.24104e-05
6.00146e-06
1.8336e-06
6.30733e-07
4.29064e-07
4.08032e-07
4.08675e-07
4.11797e-07
4.12332e-07
4.12509e-07
4.14206e-07
4.09564e-07
4.05095e-07
4.03712e-07
4.04165e-07
4.03122e-07
4.03003e-07
4.02538e-07
4.02771e-07
4.01855e-07
4.01206e-07
4.01311e-07
4.01783e-07
4.0271e-07
4.02579e-07
4.02984e-07
4.03097e-07
4.03994e-07
4.03593e-07
4.04878e-07
4.09219e-07
4.1398e-07
4.12312e-07
4.12177e-07
4.11657e-07
4.08365e-07
4.0571e-07
4.10147e-07
4.51898e-07
7.64647e-07
2.43245e-06
6.91964e-06
1.23574e-05
1.53913e-05
1.77172e-05
1.8522e-05
1.82567e-05
1.79346e-05
1.69308e-05
1.60581e-05
1.5373e-05
1.48274e-05
1.45151e-05
1.41502e-05
1.43042e-05
1.42114e-05
1.4261e-05
1.42621e-05
1.42891e-05
1.43358e-05
1.43759e-05
1.4411e-05
1.44025e-05
1.44538e-05
1.45152e-05
1.45493e-05
1.454e-05
1.4653e-05
1.46398e-05
1.47842e-05
1.47888e-05
1.48811e-05
1.48707e-05
1.50394e-05
1.50359e-05
1.52115e-05
1.52253e-05
1.53819e-05
1.54552e-05
1.55739e-05
1.56204e-05
1.57553e-05
1.57552e-05
1.59387e-05
1.60066e-05
1.61737e-05
1.62451e-05
1.64247e-05
1.65134e-05
1.66958e-05
1.67793e-05
1.69824e-05
1.70392e-05
1.7163e-05
1.72696e-05
1.7484e-05
1.76792e-05
1.79645e-05
1.81948e-05
1.84046e-05
1.86432e-05
1.89671e-05
1.92226e-05
1.94418e-05
1.96365e-05
1.98916e-05
2.02082e-05
2.04439e-05
2.06883e-05
2.09845e-05
2.12389e-05
2.13776e-05
2.15461e-05
2.17474e-05
2.19732e-05
2.21301e-05
2.22416e-05
2.23826e-05
2.25469e-05
2.2663e-05
2.27488e-05
2.29058e-05
2.29693e-05
2.30055e-05
2.30561e-05
2.31158e-05
2.31569e-05
2.30745e-05
2.30208e-05
2.29753e-05
2.28362e-05
2.27025e-05
2.25356e-05
2.23149e-05
2.20866e-05
2.18284e-05
2.15526e-05
2.12496e-05
2.09222e-05
2.05826e-05
2.02404e-05
1.98755e-05
1.95264e-05
1.91756e-05
1.88405e-05
1.85032e-05
1.81773e-05
1.77904e-05
1.75206e-05
1.71103e-05
1.6828e-05
1.6472e-05
1.61551e-05
1.58202e-05
1.54713e-05
1.51237e-05
1.47786e-05
1.44233e-05
1.40653e-05
1.36798e-05
1.33012e-05
1.28895e-05
1.24976e-05
1.20837e-05
1.16687e-05
1.12168e-05
1.07559e-05
1.02504e-05
9.7257e-06
9.15953e-06
8.57104e-06
7.92938e-06
7.2635e-06
6.57237e-06
5.87242e-06
5.1669e-06
4.47382e-06
3.80394e-06
3.186e-06
2.62732e-06
2.12058e-06
1.65958e-06
1.28594e-06
1.00519e-06
8.0293e-07
6.38011e-07
5.35475e-07
4.87234e-07
4.62718e-07
4.45872e-07
4.50187e-07
4.6551e-07
4.80079e-07
4.89552e-07
4.98991e-07
5.0607e-07
5.02349e-07
5.06661e-07
4.99459e-07
4.96916e-07
4.88762e-07
5.25526e-07
4.50856e-07
5.01167e-07
5.83485e-07
6.27992e-07
6.17198e-07
5.97195e-07
5.81285e-07
5.92035e-07
6.099e-07
5.89148e-07
5.83947e-07
6.13242e-07
6.25287e-07
6.38306e-07
7.18135e-07
8.36806e-07
8.89903e-07
1.05937e-06
1.33433e-06
1.64879e-06
2.04633e-06
2.53653e-06
3.14225e-06
3.84516e-06
4.66136e-06
5.55961e-06
6.51046e-06
7.49052e-06
8.50378e-06
9.52049e-06
1.05299e-05
1.15072e-05
1.24184e-05
1.32618e-05
1.40345e-05
1.47411e-05
1.53685e-05
1.59501e-05
1.64768e-05
1.69669e-05
1.74376e-05
1.79226e-05
1.83873e-05
1.88603e-05
1.93118e-05
1.97523e-05
2.01694e-05
2.05733e-05
2.09597e-05
2.1323e-05
2.16251e-05
2.19655e-05
2.22782e-05
2.2624e-05
2.29682e-05
2.33354e-05
2.36771e-05
2.40245e-05
2.43492e-05
2.46329e-05
2.49447e-05
2.51974e-05
2.55087e-05
2.57453e-05
2.60285e-05
2.62983e-05
2.64737e-05
2.67911e-05
2.70388e-05
2.72057e-05
2.73267e-05
2.74878e-05
2.76157e-05
2.77727e-05
2.79651e-05
2.81767e-05
2.82737e-05
2.83726e-05
2.8475e-05
2.85795e-05
2.86343e-05
2.86784e-05
2.86615e-05
2.86419e-05
2.86579e-05
2.87129e-05
2.85979e-05
2.84214e-05
2.83766e-05
2.83307e-05
2.81575e-05
2.78361e-05
2.75507e-05
2.74088e-05
2.72215e-05
2.68315e-05
2.64481e-05
2.61659e-05
2.5797e-05
2.5441e-05
2.51393e-05
2.48134e-05
2.44873e-05
2.41582e-05
2.3812e-05
2.36198e-05
2.34315e-05
2.32514e-05
2.30596e-05
2.27318e-05
2.22876e-05
2.19196e-05
2.14101e-05
2.08531e-05
2.01435e-05
1.93537e-05
1.87377e-05
1.81761e-05
1.7554e-05
1.70808e-05
1.65592e-05
1.5968e-05
1.55405e-05
1.50765e-05
1.45017e-05
1.39436e-05
1.38489e-05
1.39748e-05
1.40062e-05
1.40171e-05
1.40208e-05
1.40585e-05
1.40864e-05
1.40325e-05
1.37948e-05
1.34108e-05
1.28907e-05
1.22465e-05
1.16802e-05
1.11476e-05
1.0832e-05
1.05912e-05
1.04649e-05
1.02812e-05
1.01954e-05
1.00576e-05
1.00832e-05
9.95946e-06
1.01107e-05
1.00648e-05
1.0289e-05
1.05081e-05
1.10295e-05
1.107e-05
1.16017e-05
1.25667e-05
1.34287e-05
1.50597e-05
1.77731e-05
2.02837e-05
2.31013e-05
2.33773e-05
2.01431e-05
1.81788e-05
1.77227e-05
1.72053e-05
1.36842e-05
7.1888e-06
2.30919e-06
7.33602e-07
4.43683e-07
4.10244e-07
4.08629e-07
4.11807e-07
4.12263e-07
4.12419e-07
4.14232e-07
4.09706e-07
4.05151e-07
4.03795e-07
4.04222e-07
4.03235e-07
4.02935e-07
4.0258e-07
4.02348e-07
4.017e-07
4.00855e-07
4.00653e-07
4.01403e-07
4.0228e-07
4.02463e-07
4.0282e-07
4.03032e-07
4.0393e-07
4.03622e-07
4.04759e-07
4.09146e-07
4.13798e-07
4.12194e-07
4.12036e-07
4.11754e-07
4.08777e-07
4.06629e-07
4.08528e-07
4.33899e-07
6.40409e-07
1.85715e-06
5.63177e-06
1.10117e-05
1.4325e-05
1.69623e-05
1.84734e-05
1.83657e-05
1.827e-05
1.80437e-05
1.75515e-05
1.71928e-05
1.68528e-05
1.66445e-05
1.66348e-05
1.6473e-05
1.6559e-05
1.64657e-05
1.65804e-05
1.65202e-05
1.66449e-05
1.66101e-05
1.67258e-05
1.67063e-05
1.6814e-05
1.68075e-05
1.69199e-05
1.69281e-05
1.70086e-05
1.70724e-05
1.71734e-05
1.7221e-05
1.73425e-05
1.7353e-05
1.75064e-05
1.75483e-05
1.76834e-05
1.77669e-05
1.79262e-05
1.80141e-05
1.81653e-05
1.82131e-05
1.83972e-05
1.84801e-05
1.86699e-05
1.87943e-05
1.89795e-05
1.91096e-05
1.93239e-05
1.94549e-05
1.96375e-05
1.97783e-05
1.99953e-05
2.0104e-05
2.02626e-05
2.04655e-05
2.07489e-05
2.09702e-05
2.13149e-05
2.15919e-05
2.18344e-05
2.21523e-05
2.25379e-05
2.28332e-05
2.30893e-05
2.33509e-05
2.37036e-05
2.4045e-05
2.42335e-05
2.4411e-05
2.46773e-05
2.49247e-05
2.50381e-05
2.51665e-05
2.53402e-05
2.55361e-05
2.56435e-05
2.57103e-05
2.57917e-05
2.58961e-05
2.59334e-05
2.59016e-05
2.59319e-05
2.58757e-05
2.57583e-05
2.56271e-05
2.55047e-05
2.53551e-05
2.51135e-05
2.48377e-05
2.45352e-05
2.41414e-05
2.37469e-05
2.33079e-05
2.28147e-05
2.23127e-05
2.17884e-05
2.12331e-05
2.06884e-05
2.00929e-05
1.95327e-05
1.89588e-05
1.83972e-05
1.78491e-05
1.73442e-05
1.68218e-05
1.6364e-05
1.58553e-05
1.53659e-05
1.49437e-05
1.44127e-05
1.40033e-05
1.34917e-05
1.30651e-05
1.25568e-05
1.20886e-05
1.15614e-05
1.10818e-05
1.05461e-05
1.00342e-05
9.44663e-06
8.87618e-06
8.22342e-06
7.59289e-06
6.9068e-06
6.22776e-06
5.50907e-06
4.81705e-06
4.12644e-06
3.4939e-06
2.90905e-06
2.40235e-06
1.9461e-06
1.57219e-06
1.2625e-06
1.02104e-06
8.2709e-07
6.90778e-07
5.85441e-07
5.22004e-07
4.80443e-07
4.60132e-07
4.40905e-07
4.38209e-07
4.33354e-07
4.38587e-07
4.34178e-07
4.40034e-07
4.35e-07
4.39418e-07
4.35284e-07
4.39746e-07
4.29353e-07
4.34952e-07
4.26054e-07
4.35219e-07
4.26033e-07
4.3754e-07
4.25676e-07
4.4139e-07
4.46611e-07
4.38155e-07
4.47671e-07
4.92602e-07
5.0138e-07
6.44817e-07
5.86771e-07
5.42636e-07
5.37388e-07
5.25488e-07
5.1217e-07
5.06353e-07
5.08857e-07
5.10026e-07
5.1793e-07
5.13774e-07
5.12158e-07
5.20756e-07
5.29627e-07
5.22745e-07
5.32929e-07
5.40826e-07
5.53299e-07
5.70276e-07
6.00157e-07
6.39117e-07
6.99315e-07
7.85903e-07
9.15433e-07
1.0869e-06
1.3132e-06
1.60984e-06
1.99351e-06
2.46981e-06
3.05901e-06
3.7421e-06
4.50888e-06
5.35314e-06
6.26292e-06
7.19873e-06
8.15126e-06
9.09512e-06
1.00181e-05
1.09081e-05
1.17948e-05
1.26273e-05
1.34418e-05
1.4214e-05
1.49635e-05
1.56801e-05
1.63772e-05
1.7041e-05
1.76909e-05
1.82582e-05
1.88698e-05
1.9427e-05
2.00202e-05
2.05807e-05
2.1187e-05
2.17406e-05
2.23299e-05
2.28515e-05
2.33733e-05
2.38737e-05
2.43681e-05
2.4861e-05
2.53362e-05
2.57981e-05
2.63038e-05
2.66665e-05
2.71787e-05
2.76561e-05
2.80224e-05
2.83282e-05
2.86586e-05
2.89746e-05
2.92825e-05
2.96656e-05
3.0102e-05
3.04229e-05
3.06834e-05
3.09978e-05
3.13514e-05
3.16353e-05
3.18551e-05
3.20268e-05
3.21797e-05
3.23509e-05
3.25616e-05
3.26685e-05
3.26836e-05
3.27761e-05
3.28576e-05
3.2789e-05
3.26543e-05
3.24843e-05
3.24089e-05
3.22681e-05
3.19632e-05
3.15841e-05
3.13566e-05
3.10565e-05
3.06898e-05
3.0419e-05
3.01478e-05
2.98393e-05
2.95036e-05
2.91454e-05
2.89559e-05
2.87385e-05
2.85609e-05
2.83917e-05
2.81038e-05
2.7631e-05
2.71939e-05
2.66063e-05
2.5902e-05
2.50846e-05
2.44701e-05
2.38677e-05
2.32718e-05
2.27436e-05
2.21968e-05
2.15627e-05
2.092e-05
2.02695e-05
1.96274e-05
1.91016e-05
1.85893e-05
1.80772e-05
1.79497e-05
1.78667e-05
1.78091e-05
1.77258e-05
1.78226e-05
1.78682e-05
1.78672e-05
1.75267e-05
1.7094e-05
1.6468e-05
1.58774e-05
1.5315e-05
1.49872e-05
1.46907e-05
1.44654e-05
1.41785e-05
1.39578e-05
1.37691e-05
1.35863e-05
1.35904e-05
1.33809e-05
1.34442e-05
1.33152e-05
1.32913e-05
1.33666e-05
1.34895e-05
1.3778e-05
1.40714e-05
1.45707e-05
1.49042e-05
1.65827e-05
1.91064e-05
2.15046e-05
2.49165e-05
2.63894e-05
2.50546e-05
2.12205e-05
1.86808e-05
1.78357e-05
1.48123e-05
8.33511e-06
2.8056e-06
8.45085e-07
4.56538e-07
4.09719e-07
4.08252e-07
4.11622e-07
4.12382e-07
4.12614e-07
4.14398e-07
4.09713e-07
4.05226e-07
4.03784e-07
4.04225e-07
4.03139e-07
4.03014e-07
4.02553e-07
4.02747e-07
4.01859e-07
4.01181e-07
4.01195e-07
4.01781e-07
4.02704e-07
4.02597e-07
4.03005e-07
4.03086e-07
4.03918e-07
4.03553e-07
4.04853e-07
4.09031e-07
4.13888e-07
4.12298e-07
4.12102e-07
4.1184e-07
4.09098e-07
4.07316e-07
4.10408e-07
4.3065e-07
5.66273e-07
1.41801e-06
4.45325e-06
9.57617e-06
1.31329e-05
1.58762e-05
1.81656e-05
1.88471e-05
1.88236e-05
1.88276e-05
1.86507e-05
1.85054e-05
1.83758e-05
1.82835e-05
1.824e-05
1.82163e-05
1.82208e-05
1.8228e-05
1.82591e-05
1.82937e-05
1.83331e-05
1.83895e-05
1.84365e-05
1.84942e-05
1.85496e-05
1.86113e-05
1.86788e-05
1.87484e-05
1.88376e-05
1.8897e-05
1.89982e-05
1.90634e-05
1.91413e-05
1.92303e-05
1.9311e-05
1.94363e-05
1.95461e-05
1.96887e-05
1.97944e-05
1.99291e-05
2.00425e-05
2.02064e-05
2.03349e-05
2.05067e-05
2.0635e-05
2.08202e-05
2.10123e-05
2.11673e-05
2.13815e-05
2.15429e-05
2.17217e-05
2.19292e-05
2.21166e-05
2.22904e-05
2.25223e-05
2.27966e-05
2.30858e-05
2.33518e-05
2.36978e-05
2.39967e-05
2.43005e-05
2.46885e-05
2.5049e-05
2.53366e-05
2.56102e-05
2.59117e-05
2.62214e-05
2.648e-05
2.66061e-05
2.67477e-05
2.69579e-05
2.71649e-05
2.72037e-05
2.72746e-05
2.73675e-05
2.74832e-05
2.75385e-05
2.75434e-05
2.75301e-05
2.75301e-05
2.74411e-05
2.72571e-05
2.71312e-05
2.69245e-05
2.66387e-05
2.6321e-05
2.59749e-05
2.55936e-05
2.51575e-05
2.46142e-05
2.4019e-05
2.33678e-05
2.27137e-05
2.20071e-05
2.12889e-05
2.05337e-05
1.97983e-05
1.90201e-05
1.82919e-05
1.75117e-05
1.67968e-05
1.60634e-05
1.53823e-05
1.46824e-05
1.40743e-05
1.33929e-05
1.28622e-05
1.22146e-05
1.16591e-05
1.10867e-05
1.04819e-05
9.91033e-06
9.28644e-06
8.71586e-06
8.03418e-06
7.41392e-06
6.66597e-06
6.02276e-06
5.27408e-06
4.63617e-06
3.91009e-06
3.33016e-06
2.69549e-06
2.23665e-06
1.76096e-06
1.44967e-06
1.12943e-06
9.45696e-07
7.49889e-07
6.70103e-07
5.68468e-07
5.5139e-07
4.91366e-07
5.04092e-07
4.67232e-07
4.89502e-07
4.61702e-07
4.85262e-07
4.61889e-07
4.84443e-07
4.64128e-07
4.84909e-07
4.65632e-07
4.84945e-07
4.66428e-07
4.84614e-07
4.66402e-07
4.83396e-07
4.65241e-07
4.82014e-07
4.64934e-07
4.81998e-07
4.66805e-07
4.81662e-07
4.67405e-07
4.78636e-07
4.69237e-07
4.72976e-07
4.77561e-07
4.58562e-07
4.87962e-07
4.62939e-07
4.84381e-07
4.43682e-07
5.27948e-07
5.99851e-07
5.63028e-07
5.38129e-07
5.35701e-07
5.32581e-07
5.38204e-07
5.33339e-07
5.35823e-07
5.29959e-07
5.366e-07
5.32099e-07
5.37587e-07
5.3136e-07
5.37825e-07
5.34041e-07
5.40274e-07
5.34903e-07
5.38673e-07
5.34183e-07
5.38105e-07
5.33886e-07
5.42527e-07
5.38122e-07
5.49698e-07
5.48463e-07
5.64168e-07
5.71176e-07
6.02317e-07
6.26716e-07
6.86519e-07
7.56772e-07
8.7069e-07
1.01092e-06
1.22473e-06
1.49603e-06
1.84868e-06
2.28186e-06
2.82036e-06
3.45128e-06
4.21244e-06
5.05082e-06
5.9854e-06
6.96306e-06
8.00157e-06
9.03281e-06
1.00745e-05
1.10632e-05
1.20333e-05
1.28919e-05
1.37838e-05
1.45985e-05
1.54425e-05
1.62182e-05
1.70479e-05
1.77867e-05
1.85939e-05
1.92914e-05
2.00447e-05
2.07095e-05
2.14401e-05
2.20857e-05
2.27982e-05
2.3433e-05
2.41285e-05
2.47307e-05
2.53785e-05
2.59865e-05
2.65188e-05
2.70618e-05
2.75808e-05
2.80956e-05
2.85886e-05
2.91089e-05
2.96558e-05
3.01916e-05
3.06706e-05
3.11328e-05
3.16548e-05
3.21951e-05
3.26547e-05
3.30913e-05
3.34567e-05
3.38227e-05
3.42063e-05
3.45341e-05
3.47654e-05
3.49903e-05
3.52276e-05
3.53109e-05
3.54057e-05
3.54262e-05
3.54634e-05
3.54369e-05
3.52827e-05
3.49671e-05
3.47694e-05
3.4599e-05
3.43e-05
3.40346e-05
3.38188e-05
3.35703e-05
3.33137e-05
3.30326e-05
3.28702e-05
3.26667e-05
3.24913e-05
3.23414e-05
3.21278e-05
3.17291e-05
3.12897e-05
3.07229e-05
3.00003e-05
2.92975e-05
2.86647e-05
2.80096e-05
2.74078e-05
2.68553e-05
2.62953e-05
2.56585e-05
2.4976e-05
2.42476e-05
2.35075e-05
2.28548e-05
2.22858e-05
2.18192e-05
2.14738e-05
2.12043e-05
2.09874e-05
2.08201e-05
2.08805e-05
2.09304e-05
2.09224e-05
2.05099e-05
2.00401e-05
1.94361e-05
1.90018e-05
1.85208e-05
1.82841e-05
1.7913e-05
1.76946e-05
1.74363e-05
1.71951e-05
1.69787e-05
1.67592e-05
1.65369e-05
1.63848e-05
1.62476e-05
1.61861e-05
1.61558e-05
1.6022e-05
1.59565e-05
1.61382e-05
1.63534e-05
1.67034e-05
1.70671e-05
1.81343e-05
2.06438e-05
2.27352e-05
2.57055e-05
2.77542e-05
2.89548e-05
2.58564e-05
2.08464e-05
1.87302e-05
1.59452e-05
9.56202e-06
3.39493e-06
9.90546e-07
4.81556e-07
4.14793e-07
4.08779e-07
4.11568e-07
4.1228e-07
4.12442e-07
4.14367e-07
4.09888e-07
4.05239e-07
4.03817e-07
4.04283e-07
4.03271e-07
4.02947e-07
4.02597e-07
4.02327e-07
4.017e-07
4.01e-07
4.00571e-07
4.01309e-07
4.02184e-07
4.02461e-07
4.02777e-07
4.02903e-07
4.03857e-07
4.03519e-07
4.04701e-07
4.09016e-07
4.13674e-07
4.12112e-07
4.11893e-07
4.11675e-07
4.08861e-07
4.0828e-07
4.09627e-07
4.1739e-07
4.89965e-07
1.05206e-06
3.37759e-06
8.07166e-06
1.17977e-05
1.43802e-05
1.68759e-05
1.83006e-05
1.87937e-05
1.90857e-05
1.91041e-05
1.91588e-05
1.91353e-05
1.91549e-05
1.91594e-05
1.91847e-05
1.92186e-05
1.92493e-05
1.93063e-05
1.93406e-05
1.94162e-05
1.94557e-05
1.95414e-05
1.95856e-05
1.96833e-05
1.97271e-05
1.98314e-05
1.98953e-05
1.99961e-05
2.0087e-05
2.01823e-05
2.02796e-05
2.0383e-05
2.04915e-05
2.0606e-05
2.07333e-05
2.08517e-05
2.10056e-05
2.11336e-05
2.12705e-05
2.14299e-05
2.15772e-05
2.17394e-05
2.18889e-05
2.20573e-05
2.22378e-05
2.24287e-05
2.25999e-05
2.27707e-05
2.29935e-05
2.31547e-05
2.34011e-05
2.35872e-05
2.38225e-05
2.40655e-05
2.43718e-05
2.46175e-05
2.49394e-05
2.52289e-05
2.55811e-05
2.58751e-05
2.62511e-05
2.65325e-05
2.68133e-05
2.70449e-05
2.7302e-05
2.75028e-05
2.7671e-05
2.77649e-05
2.78987e-05
2.80391e-05
2.81488e-05
2.81155e-05
2.81349e-05
2.81362e-05
2.81512e-05
2.80742e-05
2.7968e-05
2.78309e-05
2.76553e-05
2.73843e-05
2.70514e-05
2.67438e-05
2.63383e-05
2.58715e-05
2.53152e-05
2.46738e-05
2.40642e-05
2.34456e-05
2.26761e-05
2.18587e-05
2.09945e-05
2.01325e-05
1.92243e-05
1.83237e-05
1.73755e-05
1.64736e-05
1.55277e-05
1.46643e-05
1.37301e-05
1.29103e-05
1.20359e-05
1.12715e-05
1.0429e-05
9.7428e-06
8.90282e-06
8.30432e-06
7.47735e-06
6.83405e-06
6.07151e-06
5.37593e-06
4.65065e-06
3.98508e-06
3.37781e-06
2.76722e-06
2.29606e-06
1.79312e-06
1.49792e-06
1.14275e-06
9.98554e-07
7.48428e-07
7.12578e-07
5.43459e-07
5.73279e-07
4.56958e-07
5.15439e-07
4.28127e-07
4.90768e-07
4.19673e-07
4.81523e-07
4.19e-07
4.75533e-07
4.20635e-07
4.71407e-07
4.22846e-07
4.65811e-07
4.24809e-07
4.61644e-07
4.27326e-07
4.58137e-07
4.28416e-07
4.54069e-07
4.29442e-07
4.51303e-07
4.3148e-07
4.48952e-07
4.34175e-07
4.47887e-07
4.38622e-07
4.47097e-07
4.42185e-07
4.43842e-07
4.45298e-07
4.4057e-07
4.51463e-07
4.3677e-07
4.58068e-07
4.29231e-07
4.60279e-07
4.23144e-07
4.41715e-07
4.50412e-07
4.56849e-07
4.83554e-07
5.25791e-07
6.42548e-07
5.57104e-07
5.23369e-07
5.14065e-07
4.90022e-07
4.89133e-07
4.83645e-07
4.88577e-07
4.8373e-07
4.88855e-07
4.84815e-07
4.9253e-07
4.87553e-07
4.92797e-07
4.87402e-07
4.93574e-07
4.89616e-07
4.95227e-07
4.92314e-07
4.97806e-07
4.93315e-07
4.97816e-07
4.93851e-07
4.99173e-07
4.96789e-07
5.00839e-07
4.98435e-07
5.03033e-07
5.01035e-07
5.0664e-07
5.06806e-07
5.17025e-07
5.17801e-07
5.371e-07
5.45293e-07
5.78559e-07
6.04235e-07
6.69523e-07
7.33e-07
8.73526e-07
1.0206e-06
1.28727e-06
1.58277e-06
2.02849e-06
2.53829e-06
3.21382e-06
3.95215e-06
4.85878e-06
5.76261e-06
6.82318e-06
7.86151e-06
8.996e-06
1.00375e-05
1.11623e-05
1.21334e-05
1.31807e-05
1.40739e-05
1.50281e-05
1.5876e-05
1.68016e-05
1.76254e-05
1.85346e-05
1.93633e-05
2.02221e-05
2.10437e-05
2.18373e-05
2.26031e-05
2.32603e-05
2.40323e-05
2.47301e-05
2.54351e-05
2.61081e-05
2.68105e-05
2.74773e-05
2.81804e-05
2.88721e-05
2.95112e-05
3.01345e-05
3.08325e-05
3.15068e-05
3.21781e-05
3.27935e-05
3.33811e-05
3.39569e-05
3.45359e-05
3.50439e-05
3.54572e-05
3.58429e-05
3.60664e-05
3.63553e-05
3.66224e-05
3.67764e-05
3.68831e-05
3.69297e-05
3.68407e-05
3.67207e-05
3.66456e-05
3.64826e-05
3.62709e-05
3.61273e-05
3.59423e-05
3.57829e-05
3.56162e-05
3.55112e-05
3.53774e-05
3.52318e-05
3.51146e-05
3.49882e-05
3.47054e-05
3.4341e-05
3.38805e-05
3.32476e-05
3.26023e-05
3.19894e-05
3.13897e-05
3.08107e-05
3.02395e-05
2.96832e-05
2.91103e-05
2.84692e-05
2.77594e-05
2.70071e-05
2.63128e-05
2.56743e-05
2.50895e-05
2.45855e-05
2.42087e-05
2.38279e-05
2.34717e-05
2.3449e-05
2.3504e-05
2.34545e-05
2.2972e-05
2.24906e-05
2.19712e-05
2.17148e-05
2.13953e-05
2.12155e-05
2.09364e-05
2.06508e-05
2.042e-05
2.01485e-05
1.99441e-05
1.9664e-05
1.95172e-05
1.92175e-05
1.90923e-05
1.88711e-05
1.87057e-05
1.85712e-05
1.83138e-05
1.82438e-05
1.84343e-05
1.87034e-05
1.91872e-05
1.96159e-05
2.17021e-05
2.33932e-05
2.56725e-05
2.84562e-05
3.07384e-05
3.03851e-05
2.44988e-05
2.01667e-05
1.71169e-05
1.08694e-05
4.0929e-06
1.17301e-06
5.03082e-07
4.14742e-07
4.08639e-07
4.1159e-07
4.12431e-07
4.12664e-07
4.14498e-07
4.09934e-07
4.05352e-07
4.03793e-07
4.04262e-07
4.03165e-07
4.03029e-07
4.02551e-07
4.0259e-07
4.01863e-07
4.01034e-07
4.01244e-07
4.01738e-07
4.02542e-07
4.02649e-07
4.03003e-07
4.02986e-07
4.03877e-07
4.03496e-07
4.04725e-07
4.08908e-07
4.13822e-07
4.12282e-07
4.11972e-07
4.1179e-07
4.08515e-07
4.06096e-07
4.07604e-07
4.12767e-07
4.49265e-07
7.84498e-07
2.42635e-06
6.47782e-06
1.04572e-05
1.30541e-05
1.55766e-05
1.74376e-05
1.8204e-05
1.88689e-05
1.90799e-05
1.93044e-05
1.93923e-05
1.94988e-05
1.95657e-05
1.96366e-05
1.96993e-05
1.97647e-05
1.98268e-05
1.98986e-05
1.99598e-05
2.00433e-05
2.01026e-05
2.01988e-05
2.02526e-05
2.0373e-05
2.042e-05
2.05542e-05
2.06162e-05
2.07539e-05
2.0828e-05
2.09727e-05
2.10479e-05
2.12097e-05
2.12921e-05
2.1462e-05
2.15625e-05
2.17322e-05
2.18556e-05
2.20304e-05
2.2151e-05
2.23532e-05
2.24555e-05
2.26789e-05
2.27912e-05
2.3028e-05
2.31524e-05
2.33788e-05
2.35035e-05
2.37815e-05
2.39225e-05
2.41921e-05
2.43621e-05
2.46309e-05
2.48458e-05
2.51661e-05
2.53625e-05
2.56898e-05
2.5944e-05
2.62781e-05
2.65289e-05
2.68399e-05
2.70704e-05
2.7311e-05
2.74803e-05
2.76701e-05
2.77836e-05
2.78872e-05
2.79368e-05
2.80088e-05
2.80476e-05
2.8053e-05
2.79361e-05
2.78545e-05
2.77298e-05
2.75881e-05
2.73249e-05
2.70724e-05
2.67399e-05
2.63398e-05
2.58708e-05
2.53536e-05
2.48111e-05
2.41789e-05
2.35073e-05
2.26546e-05
2.17593e-05
2.09777e-05
2.01972e-05
1.924e-05
1.82467e-05
1.71927e-05
1.61724e-05
1.51016e-05
1.40831e-05
1.29989e-05
1.20068e-05
1.09655e-05
1.00316e-05
9.00197e-06
8.10908e-06
7.10741e-06
6.25302e-06
5.27036e-06
4.56785e-06
3.64864e-06
3.18236e-06
2.391e-06
2.08947e-06
1.51444e-06
1.33767e-06
9.4553e-07
8.9048e-07
6.48846e-07
6.6e-07
5.06463e-07
5.54309e-07
4.49777e-07
5.13853e-07
4.32825e-07
4.9674e-07
4.27606e-07
4.88996e-07
4.27057e-07
4.84809e-07
4.2846e-07
4.83028e-07
4.29771e-07
4.80182e-07
4.30273e-07
4.78514e-07
4.31875e-07
4.77173e-07
4.32248e-07
4.76172e-07
4.34452e-07
4.76238e-07
4.35623e-07
4.75032e-07
4.36695e-07
4.75398e-07
4.39064e-07
4.75946e-07
4.39695e-07
4.7524e-07
4.39986e-07
4.74823e-07
4.38833e-07
4.73275e-07
4.37589e-07
4.73623e-07
4.38717e-07
4.75703e-07
4.40325e-07
4.7615e-07
4.43689e-07
4.77454e-07
4.55961e-07
4.77031e-07
4.79554e-07
4.6078e-07
4.49534e-07
4.67945e-07
4.4018e-07
5.40428e-07
5.90872e-07
5.1277e-07
5.07347e-07
5.08661e-07
4.90678e-07
5.03809e-07
4.92809e-07
5.04305e-07
4.95876e-07
5.05713e-07
4.95613e-07
5.06472e-07
4.97625e-07
5.09705e-07
4.98555e-07
5.09908e-07
4.98077e-07
5.09296e-07
4.97479e-07
5.10265e-07
4.98885e-07
5.11825e-07
4.98439e-07
5.12162e-07
4.97524e-07
5.13996e-07
4.97132e-07
5.15839e-07
4.96658e-07
5.17703e-07
4.95886e-07
5.18501e-07
4.94536e-07
5.19752e-07
4.94414e-07
5.23538e-07
4.94885e-07
5.30769e-07
4.95883e-07
5.48709e-07
5.04154e-07
5.76549e-07
5.42552e-07
6.30723e-07
6.34273e-07
7.66969e-07
8.26965e-07
1.05835e-06
1.22834e-06
1.61734e-06
2.00791e-06
2.64714e-06
3.29113e-06
4.21128e-06
5.11352e-06
6.2239e-06
7.26145e-06
8.43144e-06
9.49199e-06