/*--------------------------------*- C++ -*----------------------------------*\
| =========                 |                                                 |
| \\      /  F ield         | OpenFOAM: The Open Source CFD Toolbox           |
|  \\    /   O peration     | Version:  v2006                                 |
|   \\  /    A nd           | Website:  www.openfoam.com                      |
|    \\/     M anipulation  |                                                 |
\*---------------------------------------------------------------------------*/
FoamFile
{
    version     2.0;
    format      ascii;
    class       volScalarField;
    location    "185";
    object      nuTilda;
}
// * * * * * * * * * * * * * * * * * * * * * * * * * * * * * * * * * * * * * //

dimensions      [0 2 -1 0 0 0 0];


internalField   nonuniform List<scalar> 
93840
(
4.27154e-07
4.40832e-07
4.18156e-07
4.30602e-07
4.44369e-07
4.72926e-07
5.09677e-07
4.98197e-07
4.19106e-07
4.32666e-07
6.07597e-07
6.75387e-07
7.0009e-07
3.9818e-07
2.73948e-07
4.13766e-07
5.47017e-07
6.30153e-07
1.77469e-06
8.63932e-06
2.68724e-05
4.98994e-05
5.25456e-05
4.89577e-05
4.41216e-05
3.62166e-05
2.8594e-05
2.31241e-05
1.87244e-05
1.63499e-05
1.40961e-05
1.26089e-05
1.28609e-05
1.23714e-05
1.24038e-05
1.22632e-05
1.21361e-05
1.20958e-05
1.19333e-05
1.19191e-05
1.17695e-05
1.17662e-05
1.1625e-05
1.16189e-05
1.14809e-05
1.14649e-05
1.13311e-05
1.13238e-05
1.11998e-05
1.11803e-05
1.10685e-05
1.10551e-05
1.09274e-05
1.08936e-05
1.08192e-05
1.08463e-05
1.07582e-05
1.07399e-05
1.06109e-05
1.05828e-05
1.05268e-05
1.05029e-05
1.04183e-05
1.04313e-05
1.03805e-05
1.03737e-05
1.03422e-05
1.03658e-05
1.03253e-05
1.03375e-05
1.03215e-05
1.03372e-05
1.03318e-05
1.03693e-05
1.03662e-05
1.04025e-05
1.04128e-05
1.04482e-05
1.04784e-05
1.05245e-05
1.05471e-05
1.05921e-05
1.06272e-05
1.06973e-05
1.0757e-05
1.08235e-05
1.08906e-05
1.09602e-05
1.1024e-05
1.11007e-05
1.11996e-05
1.13111e-05
1.1419e-05
1.15411e-05
1.16665e-05
1.18095e-05
1.195e-05
1.20959e-05
1.22483e-05
1.24175e-05
1.25904e-05
1.27583e-05
1.29358e-05
1.32734e-05
1.36096e-05
1.3698e-05
1.37746e-05
1.40382e-05
1.43232e-05
1.46071e-05
1.48888e-05
1.51716e-05
1.54485e-05
1.57813e-05
1.60771e-05
1.63776e-05
1.6653e-05
1.69837e-05
1.72529e-05
1.75413e-05
1.77665e-05
1.80331e-05
1.81598e-05
1.8347e-05
1.83757e-05
1.8371e-05
1.84759e-05
1.83112e-05
1.83949e-05
1.83098e-05
1.82022e-05
1.81664e-05
1.80173e-05
1.80345e-05
1.79219e-05
1.79061e-05
1.77623e-05
1.77595e-05
1.76497e-05
1.76594e-05
1.75987e-05
1.75681e-05
1.74822e-05
1.74487e-05
1.73889e-05
1.73468e-05
1.73116e-05
1.72492e-05
1.71823e-05
1.70894e-05
1.70234e-05
1.69361e-05
1.68451e-05
1.67335e-05
1.6621e-05
1.64805e-05
1.63356e-05
1.6166e-05
1.59908e-05
1.58045e-05
1.56373e-05
1.54344e-05
1.52151e-05
1.49495e-05
1.46317e-05
1.42817e-05
1.39408e-05
1.35356e-05
1.30026e-05
1.21567e-05
1.09889e-05
9.95595e-06
9.48869e-06
8.23914e-06
4.23474e-06
1.51468e-08
2.08096e-06
3.90381e-06
2.89253e-06
9.67842e-07
1.44666e-06
3.22869e-07
1.96506e-07
3.22705e-06
4.70196e-06
4.37426e-06
4.142e-07
3.59743e-06
1.76722e-05
1.57206e-05
6.89037e-06
1.20634e-05
2.20373e-05
2.61966e-05
2.78443e-05
2.8376e-05
2.96084e-05
3.01167e-05
3.0558e-05
3.065e-05
3.05176e-05
3.0436e-05
3.02846e-05
3.01619e-05
2.99758e-05
2.9808e-05
2.95871e-05
2.94263e-05
2.91903e-05
2.89865e-05
2.87721e-05
2.85501e-05
2.83489e-05
2.81668e-05
2.79575e-05
2.77766e-05
2.75248e-05
2.73369e-05
2.71401e-05
2.70304e-05
2.68956e-05
2.68193e-05
2.66132e-05
2.64069e-05
2.61365e-05
2.59435e-05
2.57124e-05
2.55687e-05
2.52583e-05
2.50715e-05
2.49222e-05
2.49266e-05
2.49117e-05
2.49189e-05
2.48467e-05
2.48241e-05
2.46457e-05
2.46724e-05
2.46126e-05
2.46741e-05
2.45946e-05
2.47487e-05
2.46531e-05
2.47757e-05
2.4695e-05
2.47214e-05
2.46111e-05
2.47385e-05
2.443e-05
2.44647e-05
2.47659e-05
2.44993e-05
2.47842e-05
2.45459e-05
2.48957e-05
2.46421e-05
2.49869e-05
2.47308e-05
2.46887e-05
2.31381e-05
1.90082e-05
1.30834e-05
1.15006e-05
1.15164e-05
1.1659e-05
1.17065e-05
1.16921e-05
1.16329e-05
1.14152e-05
1.12709e-05
1.13564e-05
1.13851e-05
1.11943e-05
1.09607e-05
1.09106e-05
1.09028e-05
1.07921e-05
1.06064e-05
1.04517e-05
1.03164e-05
1.01705e-05
1.00214e-05
9.86156e-06
9.70368e-06
9.53289e-06
9.3708e-06
9.21357e-06
9.06092e-06
8.90474e-06
8.74645e-06
8.5915e-06
8.43344e-06
8.27981e-06
8.12255e-06
7.97454e-06
7.81376e-06
7.67185e-06
7.50965e-06
7.37302e-06
7.21104e-06
7.08845e-06
6.92745e-06
6.81191e-06
6.63691e-06
6.52222e-06
6.34375e-06
6.25308e-06
6.07785e-06
6.00314e-06
5.82334e-06
5.75929e-06
5.57081e-06
5.52816e-06
5.34002e-06
5.32222e-06
5.12783e-06
5.12414e-06
4.91311e-06
4.92296e-06
4.70533e-06
4.74248e-06
4.52232e-06
4.58557e-06
4.35485e-06
4.43867e-06
4.19558e-06
4.30733e-06
4.06068e-06
4.20354e-06
3.96838e-06
4.15434e-06
3.93663e-06
4.29095e-06
3.93425e-06
5.09224e-06
3.98216e-06
7.8638e-06
1.20702e-05
1.68083e-05
1.97062e-05
2.3368e-05
2.66789e-05
3.18423e-05
4.02806e-05
4.68994e-05
5.19954e-05
5.31696e-05
3.17099e-05
1.11235e-05
2.33976e-06
7.20947e-07
5.59861e-07
4.26768e-07
2.73906e-07
3.94002e-07
6.98623e-07
6.73477e-07
6.07953e-07
4.28885e-07
4.11915e-07
4.96435e-07
5.09501e-07
4.72661e-07
4.46849e-07
4.31232e-07
4.1706e-07
4.39251e-07
4.24553e-07
4.23826e-07
4.41344e-07
4.17382e-07
4.31555e-07
4.44986e-07
4.7317e-07
5.08806e-07
4.97789e-07
4.12356e-07
4.28327e-07
6.10783e-07
6.77313e-07
7.02709e-07
4.01519e-07
2.67801e-07
3.99615e-07
5.29974e-07
5.67358e-07
1.28932e-06
6.23636e-06
2.15266e-05
4.52942e-05
5.22603e-05
5.06629e-05
4.81223e-05
4.32094e-05
3.65603e-05
3.1412e-05
2.5971e-05
2.24152e-05
1.95383e-05
1.77556e-05
1.69093e-05
1.6848e-05
1.70356e-05
1.65667e-05
1.7077e-05
1.64436e-05
1.70665e-05
1.63735e-05
1.7018e-05
1.63333e-05
1.69753e-05
1.63265e-05
1.69336e-05
1.6332e-05
1.68814e-05
1.63295e-05
1.68359e-05
1.63454e-05
1.67871e-05
1.63593e-05
1.67592e-05
1.63518e-05
1.66737e-05
1.63556e-05
1.67082e-05
1.64266e-05
1.67067e-05
1.64242e-05
1.66674e-05
1.64707e-05
1.66549e-05
1.64686e-05
1.66608e-05
1.65208e-05
1.66642e-05
1.65656e-05
1.671e-05
1.66199e-05
1.67463e-05
1.66866e-05
1.67895e-05
1.67528e-05
1.68584e-05
1.68298e-05
1.69286e-05
1.69152e-05
1.7008e-05
1.70201e-05
1.71078e-05
1.71205e-05
1.71959e-05
1.72212e-05
1.73052e-05
1.7345e-05
1.74185e-05
1.74714e-05
1.75398e-05
1.7584e-05
1.76496e-05
1.77102e-05
1.77801e-05
1.7838e-05
1.79013e-05
1.79597e-05
1.80215e-05
1.80755e-05
1.81259e-05
1.81747e-05
1.82251e-05
1.82622e-05
1.82775e-05
1.83246e-05
1.84207e-05
1.84739e-05
1.84573e-05
1.84603e-05
1.84828e-05
1.84989e-05
1.85043e-05
1.85092e-05
1.84992e-05
1.8488e-05
1.84578e-05
1.84369e-05
1.83941e-05
1.83504e-05
1.82717e-05
1.82093e-05
1.81072e-05
1.8017e-05
1.78692e-05
1.77641e-05
1.75869e-05
1.74654e-05
1.72755e-05
1.71229e-05
1.69589e-05
1.67779e-05
1.66196e-05
1.64328e-05
1.6271e-05
1.6104e-05
1.59204e-05
1.57608e-05
1.5572e-05
1.54303e-05
1.52394e-05
1.5085e-05
1.48734e-05
1.47145e-05
1.45072e-05
1.43406e-05
1.41163e-05
1.39353e-05
1.37014e-05
1.34832e-05
1.32305e-05
1.29996e-05
1.27284e-05
1.24603e-05
1.2161e-05
1.18473e-05
1.14742e-05
1.10706e-05
1.06379e-05
1.01771e-05
9.67591e-06
9.16004e-06
8.61714e-06
8.02405e-06
7.25127e-06
6.23636e-06
5.37515e-06
5.10941e-06
5.10811e-06
4.70011e-06
3.7112e-06
2.40144e-06
1.60733e-06
1.84148e-06
2.25844e-06
1.88787e-06
1.25073e-06
1.4142e-06
1.68994e-06
1.2145e-06
9.29111e-07
1.09932e-06
4.61928e-07
5.6171e-07
2.38183e-06
2.52451e-06
2.68474e-06
3.01392e-06
2.33463e-06
1.92323e-06
4.01678e-06
4.21405e-06
1.68339e-06
7.53847e-07
4.65265e-06
8.32638e-06
8.30598e-06
6.50774e-06
6.92084e-06
9.23784e-06
1.21932e-05
1.43531e-05
1.52009e-05
1.58772e-05
1.69715e-05
1.81782e-05
1.90421e-05
1.9691e-05
2.02011e-05
2.07232e-05
2.11507e-05
2.15186e-05
2.18394e-05
2.20972e-05
2.22709e-05
2.24927e-05
2.26294e-05
2.28464e-05
2.29833e-05
2.31627e-05
2.32616e-05
2.3373e-05
2.34512e-05
2.36012e-05
2.3708e-05
2.38544e-05
2.39309e-05
2.40892e-05
2.41252e-05
2.42509e-05
2.42792e-05
2.44101e-05
2.44265e-05
2.45497e-05
2.45746e-05
2.47217e-05
2.47395e-05
2.49394e-05
2.49664e-05
2.51653e-05
2.51696e-05
2.53713e-05
2.53758e-05
2.56052e-05
2.55888e-05
2.58396e-05
2.57911e-05
2.61067e-05
2.60106e-05
2.63648e-05
2.62366e-05
2.67045e-05
2.63106e-05
2.70317e-05
2.63795e-05
2.74082e-05
2.64519e-05
2.7704e-05
2.66647e-05
2.77386e-05
2.73886e-05
2.68826e-05
2.57456e-05
2.57908e-05
2.8358e-05
3.02257e-05
3.06136e-05
3.0228e-05
2.96818e-05
2.90234e-05
2.84177e-05
2.80419e-05
2.7666e-05
2.7138e-05
2.66016e-05
2.62657e-05
2.59834e-05
2.56263e-05
2.52256e-05
2.49002e-05
2.46238e-05
2.4342e-05
2.40699e-05
2.38017e-05
2.3553e-05
2.33043e-05
2.30654e-05
2.2856e-05
2.26287e-05
2.24344e-05
2.22043e-05
2.20314e-05
2.18023e-05
2.16602e-05
2.14171e-05
2.13187e-05
2.10593e-05
2.09943e-05
2.07104e-05
2.06947e-05
2.03774e-05
2.04234e-05
2.00713e-05
2.01682e-05
1.97558e-05
1.99061e-05
1.94586e-05
1.96954e-05
1.92023e-05
1.9508e-05
1.89447e-05
1.93191e-05
1.86931e-05
1.91469e-05
1.84752e-05
1.90155e-05
1.82812e-05
1.88733e-05
1.80731e-05
1.87228e-05
1.78755e-05
1.86231e-05
1.77299e-05
1.85512e-05
1.75938e-05
1.84594e-05
1.74554e-05
1.83845e-05
1.73472e-05
1.83306e-05
1.72957e-05
1.82357e-05
1.73749e-05
1.79513e-05
1.76404e-05
1.79505e-05
1.72273e-05
1.86628e-05
1.94049e-05
2.36813e-05
2.89196e-05
3.26767e-05
3.68847e-05
3.79626e-05
3.85623e-05
4.07558e-05
4.55341e-05
5.07564e-05
5.59392e-05
3.72492e-05
1.44487e-05
3.19436e-06
8.62323e-07
5.84533e-07
4.41642e-07
2.81619e-07
3.8969e-07
6.94607e-07
6.71262e-07
6.06177e-07
4.33126e-07
4.17824e-07
4.9764e-07
5.08715e-07
4.71459e-07
4.46597e-07
4.32395e-07
4.18628e-07
4.38254e-07
4.28162e-07
4.25983e-07
4.41926e-07
4.1843e-07
4.32235e-07
4.42636e-07
4.73328e-07
5.09469e-07
4.99719e-07
4.20603e-07
4.32189e-07
6.1262e-07
6.77132e-07
7.05625e-07
4.06211e-07
2.67994e-07
3.88112e-07
5.18521e-07
5.20172e-07
9.60758e-07
4.38842e-06
1.64111e-05
3.94258e-05
5.04648e-05
5.09333e-05
4.97631e-05
4.74917e-05
4.29853e-05
3.97573e-05
3.59905e-05
3.33008e-05
3.10901e-05
2.99068e-05
2.84276e-05
2.8838e-05
2.82442e-05
2.83347e-05
2.81694e-05
2.81089e-05
2.81007e-05
2.79729e-05
2.80355e-05
2.78793e-05
2.79966e-05
2.78138e-05
2.79692e-05
2.77526e-05
2.7931e-05
2.76937e-05
2.79024e-05
2.76479e-05
2.78677e-05
2.76043e-05
2.78277e-05
2.75255e-05
2.77648e-05
2.75382e-05
2.78265e-05
2.75665e-05
2.77771e-05
2.74969e-05
2.77091e-05
2.74802e-05
2.76369e-05
2.74235e-05
2.76106e-05
2.74181e-05
2.75702e-05
2.7423e-05
2.75699e-05
2.74178e-05
2.75476e-05
2.74176e-05
2.75223e-05
2.74187e-05
2.75198e-05
2.74137e-05
2.7506e-05
2.74102e-05
2.74932e-05
2.74232e-05
2.74769e-05
2.73928e-05
2.74211e-05
2.73511e-05
2.73828e-05
2.73166e-05
2.73213e-05
2.72562e-05
2.7223e-05
2.713e-05
2.70819e-05
2.7005e-05
2.6942e-05
2.68407e-05
2.67536e-05
2.66388e-05
2.65324e-05
2.63876e-05
2.62416e-05
2.60755e-05
2.59102e-05
2.57084e-05
2.54834e-05
2.5304e-05
2.5216e-05
2.50326e-05
2.47235e-05
2.44313e-05
2.41636e-05
2.38722e-05
2.3569e-05
2.32573e-05
2.29216e-05
2.25688e-05
2.22076e-05
2.18544e-05
2.14829e-05
2.10917e-05
2.06897e-05
2.03144e-05
1.99313e-05
1.9547e-05
1.91609e-05
1.88043e-05
1.84315e-05
1.80837e-05
1.76854e-05
1.73732e-05
1.69806e-05
1.6682e-05
1.63035e-05
1.59457e-05
1.55907e-05
1.52279e-05
1.48618e-05
1.45054e-05
1.41285e-05
1.37754e-05
1.33748e-05
1.29729e-05
1.25481e-05
1.21637e-05
1.17373e-05
1.13161e-05
1.08365e-05
1.03882e-05
9.86266e-06
9.33036e-06
8.74171e-06
8.16224e-06
7.51293e-06
6.89674e-06
6.25441e-06
5.64976e-06
5.03192e-06
4.57364e-06
4.19582e-06
3.75893e-06
3.16441e-06
2.72274e-06
2.57512e-06
2.57016e-06
2.23639e-06
1.81606e-06
1.79861e-06
1.93505e-06
1.78725e-06
1.81349e-06
1.86437e-06
1.72829e-06
1.70996e-06
1.66554e-06
1.48109e-06
1.58947e-06
1.65757e-06
1.56352e-06
1.45041e-06
1.52043e-06
1.53675e-06
1.17123e-06
9.05695e-07
8.11909e-07
3.25179e-06
3.07647e-06
2.26456e-06
2.06753e-06
2.27599e-06
1.92674e-06
1.84689e-06
1.96027e-06
2.14554e-06
1.85161e-06
1.96983e-06
2.50712e-06
2.71029e-06
1.93217e-06
1.44153e-06
2.33895e-06
3.62191e-06
3.95889e-06
3.6495e-06
4.12379e-06
5.20376e-06
6.2788e-06
7.0849e-06
7.93743e-06
8.83912e-06
9.94947e-06
1.10515e-05
1.20727e-05
1.30491e-05
1.39888e-05
1.47791e-05
1.566e-05
1.63449e-05
1.7123e-05
1.77958e-05
1.85318e-05
1.91598e-05
1.97236e-05
2.02038e-05
2.07994e-05
2.13104e-05
2.18926e-05
2.23336e-05
2.29563e-05
2.33598e-05
2.38855e-05
2.42383e-05
2.47749e-05
2.51461e-05
2.56693e-05
2.60014e-05
2.65319e-05
2.67634e-05
2.73438e-05
2.75954e-05
2.81913e-05
2.83731e-05
2.89265e-05
2.90487e-05
2.96867e-05
2.97159e-05
3.03869e-05
3.02899e-05
3.11104e-05
3.08889e-05
3.1873e-05
3.14468e-05
3.28162e-05
3.19156e-05
3.35995e-05
3.23033e-05
3.44211e-05
3.27201e-05
3.50623e-05
3.32683e-05
3.54571e-05
3.41189e-05
3.55261e-05
3.29299e-05
3.42038e-05
3.84253e-05
4.27342e-05
4.54446e-05
4.68301e-05
4.75888e-05
4.78626e-05
4.78464e-05
4.80918e-05
4.84062e-05
4.82406e-05
4.76978e-05
4.74138e-05
4.7423e-05
4.72731e-05
4.68437e-05
4.64238e-05
4.61386e-05
4.58704e-05
4.55907e-05
4.52993e-05
4.50177e-05
4.47392e-05
4.44493e-05
4.42208e-05
4.39611e-05
4.37528e-05
4.34707e-05
4.32802e-05
4.29854e-05
4.283e-05
4.25097e-05
4.24036e-05
4.20595e-05
4.19994e-05
4.16167e-05
4.16068e-05
4.11822e-05
4.12417e-05
4.07831e-05
4.08991e-05
4.03633e-05
4.05086e-05
3.99252e-05
4.01638e-05
3.95678e-05
3.98785e-05
3.9228e-05
3.95828e-05
3.88805e-05
3.92922e-05
3.85789e-05
3.90565e-05
3.83213e-05
3.88187e-05
3.8038e-05
3.85479e-05
3.77643e-05
3.83214e-05
3.75647e-05
3.81483e-05
3.73833e-05
3.79682e-05
3.72018e-05
3.78064e-05
3.70425e-05
3.77034e-05
3.69045e-05
3.76994e-05
3.67334e-05
3.77808e-05
3.66337e-05
3.80188e-05
3.5536e-05
3.88494e-05
3.79411e-05
3.86472e-05
4.24249e-05
4.68314e-05
5.1822e-05
5.28473e-05
5.45526e-05
5.11556e-05
5.08754e-05
5.10745e-05
5.81279e-05
4.26622e-05
1.83833e-05
4.32008e-06
1.06815e-06
6.11484e-07
4.55922e-07
2.82588e-07
3.8629e-07
6.92131e-07
6.70629e-07
6.06927e-07
4.28456e-07
4.09257e-07
4.95161e-07
5.09814e-07
4.71063e-07
4.50438e-07
4.3154e-07
4.17087e-07
4.37214e-07
4.25433e-07
4.22395e-07
4.40547e-07
4.18307e-07
4.3392e-07
4.4254e-07
4.73644e-07
5.08656e-07
4.98783e-07
4.14732e-07
4.28738e-07
6.14406e-07
6.7932e-07
7.07985e-07
4.09667e-07
2.63028e-07
3.7308e-07
5.0592e-07
4.8876e-07
7.49511e-07
3.08957e-06
1.23409e-05
3.35547e-05
4.77899e-05
5.04951e-05
5.02033e-05
4.97985e-05
4.64983e-05
4.45063e-05
4.18004e-05
4.00654e-05
3.84982e-05
3.75425e-05
3.70221e-05
3.65438e-05
3.63814e-05
3.612e-05
3.60983e-05
3.59047e-05
3.59465e-05
3.57709e-05
3.5839e-05
3.56731e-05
3.57601e-05
3.55981e-05
3.56926e-05
3.55275e-05
3.56244e-05
3.54571e-05
3.55613e-05
3.539e-05
3.54975e-05
3.53163e-05
3.54285e-05
3.52241e-05
3.53619e-05
3.51932e-05
3.53671e-05
3.51588e-05
3.52841e-05
3.50521e-05
3.51801e-05
3.4967e-05
3.50689e-05
3.48625e-05
3.49876e-05
3.47937e-05
3.48989e-05
3.47311e-05
3.48295e-05
3.46543e-05
3.47352e-05
3.45709e-05
3.46326e-05
3.44819e-05
3.45358e-05
3.43769e-05
3.442e-05
3.42625e-05
3.42926e-05
3.41476e-05
3.41397e-05
3.39746e-05
3.39344e-05
3.37755e-05
3.37261e-05
3.35593e-05
3.34724e-05
3.32929e-05
3.31538e-05
3.29393e-05
3.27738e-05
3.2559e-05
3.23611e-05
3.21099e-05
3.18739e-05
3.15933e-05
3.13188e-05
3.09909e-05
3.06622e-05
3.02994e-05
2.99388e-05
2.95351e-05
2.91245e-05
2.87338e-05
2.84066e-05
2.7985e-05
2.74695e-05
2.69427e-05
2.64224e-05
2.58692e-05
2.531e-05
2.47384e-05
2.41479e-05
2.35225e-05
2.29028e-05
2.22926e-05
2.16794e-05
2.10249e-05
2.03918e-05
1.97918e-05
1.92151e-05
1.86102e-05
1.80572e-05
1.75032e-05
1.69803e-05
1.64432e-05
1.59072e-05
1.54298e-05
1.49052e-05
1.4468e-05
1.39084e-05
1.34169e-05
1.28808e-05
1.23837e-05
1.18367e-05
1.13448e-05
1.07868e-05
1.02776e-05
9.66486e-06
9.06609e-06
8.44052e-06
7.86826e-06
7.24203e-06
6.60915e-06
5.91625e-06
5.26953e-06
4.5644e-06
3.89818e-06
3.27833e-06
2.77136e-06
2.33109e-06
2.08218e-06
1.89814e-06
1.78612e-06
1.64454e-06
1.63554e-06
1.59833e-06
1.56653e-06
1.48034e-06
1.44831e-06
1.45696e-06
1.60151e-06
1.59474e-06
1.59294e-06
1.60799e-06
1.56771e-06
1.458e-06
1.49209e-06
1.39635e-06
1.37383e-06
1.37871e-06
1.34949e-06
1.30738e-06
1.26774e-06
1.17205e-06
1.18756e-06
1.19678e-06
1.02973e-06
1.18042e-06
1.22947e-06
8.53142e-07
1.47364e-06
2.75901e-06
2.3231e-06
1.96588e-06
2.04457e-06
2.048e-06
2.2148e-06
2.15697e-06
2.05625e-06
2.05524e-06
2.29072e-06
2.15538e-06
2.23305e-06
2.33981e-06
2.2096e-06
1.9069e-06
2.1425e-06
2.36789e-06
2.1912e-06
2.05166e-06
2.21184e-06
2.38123e-06
2.56836e-06
2.71655e-06
2.94912e-06
3.10019e-06
3.52735e-06
4.05067e-06
4.54359e-06
5.13255e-06
5.86997e-06
6.47506e-06
7.37243e-06
8.06934e-06
8.97409e-06
9.84894e-06
1.09333e-05
1.19624e-05
1.29277e-05
1.37667e-05
1.47902e-05
1.57e-05
1.66969e-05
1.74493e-05
1.8477e-05
1.9198e-05
2.00755e-05
2.06902e-05
2.15597e-05
2.22088e-05
2.30996e-05
2.37276e-05
2.46369e-05
2.50911e-05
2.60489e-05
2.6494e-05
2.74521e-05
2.78077e-05
2.86935e-05
2.89146e-05
2.99314e-05
3.00292e-05
3.10759e-05
3.09833e-05
3.22188e-05
3.19271e-05
3.33976e-05
3.2842e-05
3.47251e-05
3.37289e-05
3.58633e-05
3.45e-05
3.69981e-05
3.53226e-05
3.78929e-05
3.62643e-05
3.85497e-05
3.73704e-05
3.95455e-05
3.76564e-05
3.88439e-05
4.33851e-05
4.85893e-05
5.26627e-05
5.53877e-05
5.72759e-05
5.85047e-05
5.92576e-05
6.01218e-05
6.10151e-05
6.13697e-05
6.12035e-05
6.11892e-05
6.15027e-05
6.16663e-05
6.1473e-05
6.12098e-05
6.10726e-05
6.09605e-05
6.08249e-05
6.06681e-05
6.0498e-05
6.03329e-05
6.0133e-05
6.00041e-05
5.98327e-05
5.97244e-05
5.9519e-05
5.94132e-05
5.91823e-05
5.90993e-05
5.88386e-05
5.87925e-05
5.85049e-05
5.84917e-05
5.81697e-05
5.81834e-05
5.78241e-05
5.78848e-05
5.75064e-05
5.75966e-05
5.71536e-05
5.7232e-05
5.67482e-05
5.6884e-05
5.6421e-05
5.6605e-05
5.61245e-05
5.63164e-05
5.58144e-05
5.60234e-05
5.55443e-05
5.57832e-05
5.53199e-05
5.55475e-05
5.50704e-05
5.5275e-05
5.48187e-05
5.50367e-05
5.46315e-05
5.48571e-05
5.44734e-05
5.46855e-05
5.43207e-05
5.45336e-05
5.42004e-05
5.44298e-05
5.41196e-05
5.43837e-05
5.4075e-05
5.43533e-05
5.40672e-05
5.4324e-05
5.35278e-05
5.47525e-05
5.56509e-05
5.67046e-05
5.97111e-05
5.97175e-05
6.3915e-05
6.48569e-05
6.89251e-05
6.41064e-05
6.1839e-05
5.45196e-05
6.05367e-05
4.75439e-05
2.2358e-05
5.59598e-06
1.32502e-06
6.47329e-07
4.74292e-07
2.88962e-07
3.81463e-07
6.89429e-07
6.67611e-07
6.04094e-07
4.33098e-07
4.14926e-07
4.97611e-07
5.08528e-07
4.70826e-07
4.49092e-07
4.31053e-07
4.19356e-07
4.37887e-07
4.26246e-07
4.24229e-07
4.41248e-07
4.20093e-07
4.34716e-07
4.40641e-07
4.73681e-07
5.08687e-07
5.00804e-07
4.22626e-07
4.31969e-07
6.15265e-07
6.81207e-07
7.10774e-07
4.1523e-07
2.64615e-07
3.65408e-07
4.95291e-07
4.60511e-07
6.1061e-07
2.13359e-06
8.79881e-06
2.73237e-05
4.39873e-05
4.93229e-05
4.97878e-05
5.10701e-05
4.88674e-05
4.79371e-05
4.6212e-05
4.51045e-05
4.41421e-05
4.34633e-05
4.30021e-05
4.26449e-05
4.24401e-05
4.22215e-05
4.21438e-05
4.19918e-05
4.19714e-05
4.1848e-05
4.18523e-05
4.17401e-05
4.17592e-05
4.16489e-05
4.16761e-05
4.15614e-05
4.15932e-05
4.14738e-05
4.15086e-05
4.13852e-05
4.14212e-05
4.12882e-05
4.13273e-05
4.11798e-05
4.12394e-05
4.11076e-05
4.11867e-05
4.10194e-05
4.10667e-05
4.08766e-05
4.09238e-05
4.07337e-05
4.07694e-05
4.05772e-05
4.06281e-05
4.04393e-05
4.04783e-05
4.02984e-05
4.03279e-05
4.01355e-05
4.01481e-05
3.99548e-05
3.995e-05
3.97563e-05
3.97396e-05
3.9531e-05
3.94999e-05
3.92812e-05
3.92319e-05
3.901e-05
3.89175e-05
3.86695e-05
3.85387e-05
3.82829e-05
3.8128e-05
3.78525e-05
3.7651e-05
3.73491e-05
3.70871e-05
3.67427e-05
3.64394e-05
3.60725e-05
3.57205e-05
3.53059e-05
3.49016e-05
3.44404e-05
3.39791e-05
3.34561e-05
3.29312e-05
3.23616e-05
3.1798e-05
3.11904e-05
3.05899e-05
2.99592e-05
2.93611e-05
2.87039e-05
2.80012e-05
2.72421e-05
2.64745e-05
2.56667e-05
2.48672e-05
2.40524e-05
2.32321e-05
2.23546e-05
2.15088e-05
2.06713e-05
1.9852e-05
1.89637e-05
1.81437e-05
1.73503e-05
1.66159e-05
1.5806e-05
1.51179e-05
1.43669e-05
1.37161e-05
1.29933e-05
1.2347e-05
1.17027e-05
1.10841e-05
1.04856e-05
9.76432e-06
9.11878e-06
8.39593e-06
7.7589e-06
7.04447e-06
6.47547e-06
5.78405e-06
5.20195e-06
4.4737e-06
3.94349e-06
3.49256e-06
3.16998e-06
2.71207e-06
2.3392e-06
1.97515e-06
1.73875e-06
1.42216e-06
1.27918e-06
1.19889e-06
1.19661e-06
1.17412e-06
1.27728e-06
1.33114e-06
1.43698e-06
1.41632e-06
1.50051e-06
1.51303e-06
1.56762e-06
1.51644e-06
1.53512e-06
1.55963e-06
1.67373e-06
1.65612e-06
1.66242e-06
1.5894e-06
1.59215e-06
1.59735e-06
1.64734e-06
1.58993e-06
1.55174e-06
1.45214e-06
1.38895e-06
1.38618e-06
1.34111e-06
1.32459e-06
1.1173e-06
1.04803e-06
8.12331e-07
1.00703e-06
1.41757e-06
1.06811e-06
9.36729e-07
2.90782e-06
2.2221e-06
1.90904e-06
2.16399e-06
1.81699e-06
1.99236e-06
1.90357e-06
2.06985e-06
1.87524e-06
2.00678e-06
1.94315e-06
2.09036e-06
2.0429e-06
2.10502e-06
2.08758e-06
2.14859e-06
2.11278e-06
2.11252e-06
2.1073e-06
2.19429e-06
2.13949e-06
2.27491e-06
2.24889e-06
2.41844e-06
2.40908e-06
2.52476e-06
2.57766e-06
2.73823e-06
2.76326e-06
3.07583e-06
3.11174e-06
3.49921e-06
3.58065e-06
3.95884e-06
4.18318e-06
4.67302e-06
5.21342e-06
5.83431e-06
6.31306e-06
7.19934e-06
8.07104e-06
9.20129e-06
1.00394e-05
1.13629e-05
1.23408e-05
1.35331e-05
1.43749e-05
1.55289e-05
1.64435e-05
1.76574e-05
1.85644e-05
1.98643e-05
2.05366e-05
2.18742e-05
2.2546e-05
2.388e-05
2.44296e-05
2.56494e-05
2.59916e-05
2.73867e-05
2.75908e-05
2.90046e-05
2.89766e-05
3.0572e-05
3.03199e-05
3.21472e-05
3.16486e-05
3.3811e-05
3.29727e-05
3.52726e-05
3.41773e-05
3.67094e-05
3.54167e-05
3.79356e-05
3.6662e-05
3.90571e-05
3.77837e-05
4.06882e-05
3.97829e-05
4.13847e-05
4.57509e-05
5.09599e-05
5.57599e-05
5.95428e-05
6.24917e-05
6.47336e-05
6.64036e-05
6.79846e-05
6.94801e-05
7.04518e-05
7.08615e-05
7.12815e-05
7.19541e-05
7.24876e-05
7.2654e-05
7.26875e-05
7.27999e-05
7.29278e-05
7.30169e-05
7.30757e-05
7.30984e-05
7.31211e-05
7.30891e-05
7.3122e-05
7.31025e-05
7.31492e-05
7.30833e-05
7.31152e-05
7.30105e-05
7.30493e-05
7.29079e-05
7.2968e-05
7.27942e-05
7.28691e-05
7.26599e-05
7.27418e-05
7.24964e-05
7.25998e-05
7.23378e-05
7.24508e-05
7.21313e-05
7.22031e-05
7.18399e-05
7.19362e-05
7.16025e-05
7.17302e-05
7.13958e-05
7.15153e-05
7.11711e-05
7.12861e-05
7.09708e-05
7.11011e-05
7.0811e-05
7.09221e-05
7.06258e-05
7.07055e-05
7.04287e-05
7.05082e-05
7.02753e-05
7.03657e-05
7.01585e-05
7.02387e-05
7.00494e-05
7.01287e-05
6.99652e-05
7.0056e-05
6.99158e-05
7.00197e-05
6.9892e-05
6.99951e-05
6.98672e-05
6.99671e-05
6.96721e-05
7.01525e-05
7.0956e-05
7.22006e-05
7.43271e-05
7.52628e-05
7.5961e-05
7.6523e-05
8.12247e-05
7.67468e-05
7.60155e-05
6.22542e-05
6.44674e-05
5.27385e-05
2.68369e-05
7.19326e-06
1.65934e-06
6.94552e-07
4.87608e-07
2.90567e-07
3.7969e-07
6.88136e-07
6.65993e-07
6.04007e-07
4.29665e-07
4.07135e-07
4.95183e-07
5.09894e-07
4.69464e-07
4.52877e-07
4.3084e-07
4.18072e-07
4.37599e-07
4.23987e-07
4.22871e-07
4.4007e-07
4.19666e-07
4.35604e-07
4.40333e-07
4.7439e-07
5.08061e-07
5.00123e-07
4.16509e-07
4.29933e-07
6.16516e-07
6.8245e-07
7.13623e-07
4.18517e-07
2.60125e-07
3.52617e-07
4.85852e-07
4.38242e-07
5.1855e-07
1.46767e-06
5.91595e-06
2.0977e-05
3.8944e-05
4.7186e-05
4.83781e-05
5.10661e-05
5.00125e-05
4.98787e-05
4.89611e-05
4.83757e-05
4.78342e-05
4.74071e-05
4.71146e-05
4.68534e-05
4.66912e-05
4.65249e-05
4.64415e-05
4.63255e-05
4.62875e-05
4.61938e-05
4.61781e-05
4.60929e-05
4.60876e-05
4.60041e-05
4.60026e-05
4.59161e-05
4.59152e-05
4.58246e-05
4.58223e-05
4.57274e-05
4.57223e-05
4.56188e-05
4.56143e-05
4.54999e-05
4.55042e-05
4.53924e-05
4.54043e-05
4.52647e-05
4.52534e-05
4.50926e-05
4.50757e-05
4.49045e-05
4.48797e-05
4.46987e-05
4.46788e-05
4.44929e-05
4.4461e-05
4.42695e-05
4.4224e-05
4.40145e-05
4.39498e-05
4.37288e-05
4.36445e-05
4.34089e-05
4.33076e-05
4.305e-05
4.29284e-05
4.26481e-05
4.25016e-05
4.22025e-05
4.20091e-05
4.16764e-05
4.14384e-05
4.10812e-05
4.08038e-05
4.04143e-05
4.00829e-05
3.96543e-05
3.92565e-05
3.87769e-05
3.83199e-05
3.77929e-05
3.72725e-05
3.6686e-05
3.60995e-05
3.54485e-05
3.47891e-05
3.40645e-05
3.3336e-05
3.25565e-05
3.1788e-05
3.09761e-05
3.01804e-05
2.92905e-05
2.84177e-05
2.75415e-05
2.66675e-05
2.56848e-05
2.46878e-05
2.36425e-05
2.26293e-05
2.15973e-05
2.0577e-05
1.94729e-05
1.84373e-05
1.73999e-05
1.64037e-05
1.53064e-05
1.43365e-05
1.33732e-05
1.25122e-05
1.15097e-05
1.07057e-05
9.74648e-06
8.96369e-06
8.0225e-06
7.26528e-06
6.44988e-06
5.79489e-06
5.07971e-06
4.29495e-06
3.65549e-06
3.10276e-06
2.77048e-06
2.42313e-06
2.2463e-06
1.87898e-06
1.66792e-06
1.32929e-06
1.39968e-06
1.40406e-06
1.40157e-06
1.18587e-06
1.13698e-06
9.92621e-07
1.00096e-06
8.45741e-07
9.16232e-07
9.17275e-07
1.0098e-06
1.04393e-06
1.14149e-06
1.18942e-06
1.29598e-06
1.26512e-06
1.34719e-06
1.35619e-06
1.39121e-06
1.35837e-06
1.3846e-06
1.45823e-06
1.52037e-06
1.54526e-06
1.48913e-06
1.44472e-06
1.39655e-06
1.42884e-06
1.36312e-06
1.35503e-06
1.28634e-06
1.3269e-06
1.27422e-06
1.37505e-06
1.25968e-06
1.29422e-06
1.14921e-06
1.16263e-06
9.11463e-07
7.20303e-07
1.0127e-06
7.04175e-07
1.06776e-06
2.44644e-06
1.76052e-06
1.80329e-06
2.0816e-06
1.80115e-06
1.80175e-06
1.67552e-06
1.80987e-06
1.73869e-06
1.80188e-06
1.77357e-06
1.85575e-06
1.77493e-06
1.84537e-06
1.87199e-06
1.94195e-06
1.87316e-06
1.94943e-06
1.95725e-06
2.07578e-06
2.01148e-06
2.13629e-06
2.05576e-06
2.17892e-06
2.07245e-06
2.25631e-06
2.18782e-06
2.39121e-06
2.31809e-06
2.55554e-06
2.45749e-06
2.70247e-06
2.59993e-06
2.80473e-06
2.80768e-06
2.91553e-06
2.90023e-06
3.13299e-06
2.99351e-06
3.23765e-06
3.35043e-06
3.91752e-06
3.96096e-06
4.77641e-06
5.31074e-06
6.25202e-06
6.78379e-06
7.81159e-06
8.62815e-06
9.99091e-06
1.10426e-05
1.27252e-05
1.36214e-05
1.53707e-05
1.62772e-05
1.80051e-05
1.87661e-05
2.03213e-05
2.07939e-05
2.25306e-05
2.28892e-05
2.46194e-05
2.47418e-05
2.66042e-05
2.65245e-05
2.85612e-05
2.82938e-05
3.05705e-05
3.0089e-05
3.23312e-05
3.17226e-05
3.40852e-05
3.33572e-05
3.56914e-05
3.4874e-05
3.72822e-05
3.6154e-05
3.94461e-05
3.97558e-05
4.2282e-05
4.61864e-05
5.09185e-05
5.58035e-05
6.01983e-05
6.39803e-05
6.71587e-05
6.97866e-05
7.21422e-05
7.42504e-05
7.58869e-05
7.70044e-05
7.7994e-05
7.9087e-05
8.00341e-05
8.06453e-05
8.10848e-05
8.15347e-05
8.19739e-05
8.23537e-05
8.2692e-05
8.29718e-05
8.32413e-05
8.34384e-05
8.36853e-05
8.38655e-05
8.41067e-05
8.42274e-05
8.44351e-05
8.45023e-05
8.46988e-05
8.47172e-05
8.49152e-05
8.48946e-05
8.50893e-05
8.50282e-05
8.52119e-05
8.51102e-05
8.52928e-05
8.51672e-05
8.53404e-05
8.516e-05
8.52734e-05
8.50442e-05
8.51545e-05
8.49466e-05
8.50738e-05
8.4868e-05
8.4977e-05
8.4764e-05
8.48585e-05
8.46662e-05
8.47652e-05
8.45963e-05
8.46749e-05
8.44993e-05
8.45479e-05
8.43833e-05
8.44255e-05
8.4292e-05
8.43423e-05
8.42293e-05
8.42752e-05
8.41757e-05
8.42188e-05
8.4136e-05
8.41831e-05
8.4116e-05
8.41622e-05
8.41023e-05
8.41407e-05
8.40754e-05
8.41176e-05
8.40146e-05
8.42444e-05
8.47735e-05
8.57684e-05
8.74372e-05
8.87546e-05
8.99675e-05
8.80039e-05
9.17198e-05
8.77398e-05
9.00013e-05
7.3546e-05
7.08531e-05
5.86952e-05
3.19409e-05
9.12447e-06
2.10293e-06
7.58426e-07
5.10089e-07
2.96856e-07
3.73921e-07
6.85129e-07
6.63549e-07
6.01313e-07
4.32639e-07
4.1378e-07
4.97026e-07
5.08941e-07
4.69718e-07
4.5057e-07
4.29184e-07
4.20925e-07
4.39023e-07
4.25421e-07
4.23146e-07
4.40579e-07
4.23203e-07
4.36764e-07
4.39809e-07
4.74144e-07
5.08334e-07
5.01966e-07
4.2432e-07
4.32456e-07
6.19602e-07
6.81622e-07
7.18195e-07
4.2333e-07
2.61883e-07
3.42807e-07
4.79328e-07
4.21815e-07
4.66167e-07
1.03609e-06
3.72158e-06
1.5012e-05
3.27976e-05
4.39902e-05
4.60843e-05
4.97713e-05
4.99015e-05
5.03737e-05
5.01488e-05
4.99809e-05
4.9787e-05
4.95985e-05
4.94675e-05
4.93307e-05
4.92426e-05
4.91468e-05
4.90906e-05
4.90213e-05
4.89869e-05
4.89303e-05
4.89076e-05
4.88545e-05
4.8837e-05
4.87822e-05
4.87655e-05
4.87059e-05
4.86873e-05
4.86213e-05
4.8599e-05
4.85266e-05
4.84983e-05
4.84166e-05
4.83847e-05
4.8292e-05
4.82585e-05
4.816e-05
4.81241e-05
4.80036e-05
4.79486e-05
4.78079e-05
4.77409e-05
4.75835e-05
4.75052e-05
4.73315e-05
4.72461e-05
4.70591e-05
4.69567e-05
4.67514e-05
4.66292e-05
4.63998e-05
4.62544e-05
4.60029e-05
4.58327e-05
4.55536e-05
4.53594e-05
4.50511e-05
4.48283e-05
4.44847e-05
4.4229e-05
4.38521e-05
4.35451e-05
4.31266e-05
4.2768e-05
4.23066e-05
4.18944e-05
4.1389e-05
4.0916e-05
4.03594e-05
3.98154e-05
3.91973e-05
3.85744e-05
3.78834e-05
3.71841e-05
3.64216e-05
3.56434e-05
3.47989e-05
3.39355e-05
3.30084e-05
3.20748e-05
3.10878e-05
3.0117e-05
2.91043e-05
2.81119e-05
2.69601e-05
2.58305e-05
2.47592e-05
2.37301e-05
2.25429e-05
2.13449e-05
2.009e-05
1.88995e-05
1.7681e-05
1.6492e-05
1.51849e-05
1.39865e-05
1.27541e-05
1.15742e-05
1.0233e-05
9.06494e-06
7.8544e-06
6.84706e-06
5.66238e-06
4.85783e-06
3.83418e-06
3.26234e-06
2.46032e-06
2.23929e-06
1.74107e-06
1.70317e-06
1.24964e-06
1.12744e-06
9.45809e-07
1.14264e-06
1.04986e-06
1.23982e-06
1.06447e-06
1.04666e-06
8.5471e-07
9.5191e-07
9.81405e-07
1.18818e-06
1.04205e-06
1.08016e-06
8.71598e-07
9.397e-07
8.00026e-07
8.45644e-07
8.07538e-07
9.74701e-07
9.35384e-07
1.12166e-06
1.05305e-06
1.26745e-06
1.18713e-06
1.30025e-06
1.25343e-06
1.39113e-06
1.28239e-06
1.34052e-06
1.28777e-06
1.48682e-06
1.39496e-06
1.44809e-06
1.25425e-06
1.3135e-06
1.21779e-06
1.36142e-06
1.22982e-06
1.28905e-06
1.12438e-06
1.16168e-06
1.0719e-06
1.19313e-06
1.11184e-06
1.22615e-06
1.13471e-06
1.04749e-06
9.86559e-07
7.33468e-07
1.14659e-06
1.03056e-06
9.86711e-07
2.59242e-06
1.92507e-06
2.00556e-06
1.99731e-06
1.61722e-06
1.75015e-06
1.5845e-06
1.60304e-06
1.57585e-06
1.63506e-06
1.62595e-06
1.62624e-06
1.60273e-06
1.68941e-06
1.65995e-06
1.67749e-06
1.66258e-06
1.77471e-06
1.76806e-06
1.88829e-06
1.85344e-06
2.0294e-06
1.98408e-06
2.13296e-06
2.00627e-06
2.18249e-06
2.04457e-06
2.26756e-06
2.14762e-06
2.3738e-06
2.24434e-06
2.46274e-06
2.29141e-06
2.51715e-06
2.4101e-06
2.60649e-06
2.39115e-06
2.62209e-06
2.33964e-06
2.55807e-06
2.19638e-06
2.60622e-06
2.11025e-06
2.50286e-06
2.3227e-06
2.81321e-06
2.60867e-06
3.14753e-06
3.15832e-06
3.87974e-06
4.08227e-06
5.40736e-06
5.80726e-06
7.53977e-06
8.40591e-06
1.04154e-05
1.134e-05
1.31878e-05
1.38058e-05
1.58259e-05