/*--------------------------------*- C++ -*----------------------------------*\
| =========                 |                                                 |
| \\      /  F ield         | OpenFOAM: The Open Source CFD Toolbox           |
|  \\    /   O peration     | Version:  v2006                                 |
|   \\  /    A nd           | Website:  www.openfoam.com                      |
|    \\/     M anipulation  |                                                 |
\*---------------------------------------------------------------------------*/
FoamFile
{
    version     2.0;
    format      ascii;
    class       volScalarField;
    location    "185";
    object      p;
}
// * * * * * * * * * * * * * * * * * * * * * * * * * * * * * * * * * * * * * //

dimensions      [1 -1 -2 0 0 0 0];


internalField   nonuniform List<scalar> 
93840
(
0.99425
0.949345
0.997727
1.01014
0.973549
1.00043
0.967804
0.999006
0.997567
1.02087
1.00738
1.02532
1.0178
1.03435
1.02421
1.0398
1.03687
1.05035
1.04761
1.05816
1.05619
1.06422
1.06104
1.0668
1.0599
1.06453
1.05828
1.06423
1.05838
1.06403
1.05619
1.08263
1.05926
1.06699
1.06794
1.07397
1.07329
1.0788
1.07822
1.08326
1.08251
1.08639
1.08584
1.08915
1.08906
1.09205
1.09262
1.09495
1.09512
1.09798
1.0978
1.09978
1.10042
1.10288
1.10252
1.10371
1.1044
1.10453
1.10516
1.10778
1.10805
1.10858
1.10862
1.10886
1.10882
1.10948
1.10914
1.10844
1.10837
1.10831
1.10793
1.1075
1.10675
1.10569
1.10487
1.10369
1.1028
1.10163
1.10051
1.09905
1.09791
1.09635
1.09493
1.09281
1.09078
1.0886
1.08631
1.08396
1.08166
1.07914
1.07618
1.07299
1.0698
1.06627
1.06257
1.05841
1.05426
1.04993
1.04549
1.04062
1.03565
1.03072
1.02579
1.01747
1.0088
1.00553
1.00287
0.996118
0.988706
0.981379
0.974198
0.967122
0.96042
0.952358
0.94529
0.938248
0.932256
0.924773
0.919126
0.912811
0.908753
0.90337
0.902525
0.899656
0.901849
0.905327
0.905058
0.913314
0.914232
0.919737
0.927069
0.930829
0.940042
0.942242
0.950686
0.952561
0.962192
0.964429
0.973208
0.97544
0.981715
0.984676
0.991707
0.995443
1.00139
1.00592
1.01064
1.01553
1.02101
1.02681
1.0322
1.03722
1.04297
1.04902
1.05581
1.06213
1.0693
1.07621
1.08469
1.09229
1.09961
1.10596
1.11413
1.12278
1.13207
1.14176
1.15301
1.16418
1.17551
1.18748
1.20154
1.21724
1.23367
1.2484
1.26605
1.28667
1.30878
1.33376
1.35698
1.38004
1.39326
1.40477
1.37234
1.30564
1.18693
1.05782
0.908952
0.818998
0.774718
0.77488
0.694439
0.634705
0.588507
0.592022
0.54686
0.551864
0.530852
0.536603
0.525203
0.525449
0.528494
0.530579
0.53346
0.534506
0.537292
0.54039
0.543792
0.546337
0.549693
0.552455
0.555372
0.557859
0.560074
0.561707
0.564116
0.566458
0.56939
0.571072
0.571893
0.571311
0.571375
0.57046
0.572719
0.575646
0.579209
0.581736
0.583571
0.585626
0.590316
0.59259
0.592427
0.589278
0.585192
0.583361
0.581572
0.580634
0.581869
0.578601
0.576411
0.574028
0.572336
0.566748
0.565813
0.560831
0.559736
0.557771
0.556062
0.551755
0.557108
0.552386
0.542129
0.54688
0.536952
0.540238
0.530208
0.531466
0.524445
0.522951
0.534334
0.565892
0.656821
0.756655
0.7893
0.805254
0.81716
0.827598
0.836868
0.845672
0.855193
0.86423
0.869885
0.875392
0.882838
0.891145
0.89692
0.90172
0.907191
0.913568
0.919388
0.924807
0.930073
0.935258
0.940312
0.945248
0.950073
0.954783
0.95916
0.963474
0.96755
0.971616
0.975434
0.979221
0.982788
0.986315
0.989637
0.992881
0.995998
0.998961
1.00192
1.00458
1.00738
1.00966
1.01238
1.01436
1.01712
1.01871
1.02144
1.02253
1.02531
1.02593
1.02886
1.02899
1.03211
1.03168
1.03504
1.03402
1.0377
1.03611
1.04017
1.03797
1.04243
1.03958
1.04449
1.04097
1.04639
1.04218
1.04814
1.04317
1.04976
1.04394
1.05122
1.04447
1.05234
1.04474
1.05206
1.04471
1.0471
1.05017
1.05758
1.05732
1.06336
1.06225
1.06797
1.06385
1.06775
1.06216
1.06434
1.05711
1.0576
1.04734
1.05064
1.03695
1.03934
1.02442
1.03408
1.01775
1.02562
1.00725
1.02054
0.997124
0.998827
0.967881
1.00039
0.973223
1.00978
0.997946
0.948991
0.994093
0.994034
0.949083
0.998046
1.00985
0.973227
1.00046
0.967789
0.999111
0.99704
1.02057
1.00735
1.02572
1.01775
1.03415
1.02447
1.03928
1.03714
1.05071
1.0473
1.05774
1.05695
1.06425
1.0618
1.06756
1.06309
1.06714
1.06262
1.06289
1.05776
1.06043
1.05516
1.05854
1.06083
1.06656
1.0676
1.073
1.07288
1.07806
1.07756
1.08238
1.08169
1.08577
1.0852
1.08871
1.08858
1.09156
1.09198
1.09446
1.09465
1.09744
1.0973
1.09943
1.09997
1.10212
1.10187
1.10348
1.10426
1.10435
1.10473
1.10726
1.10778
1.10817
1.10822
1.10851
1.10855
1.10911
1.10884
1.10823
1.1081
1.10804
1.10768
1.10728
1.10653
1.10552
1.10467
1.10352
1.10263
1.10146
1.10036
1.09892
1.09777
1.0962
1.09478
1.09268
1.09067
1.08849
1.08622
1.08387
1.08155
1.07902
1.07608
1.07292
1.06973
1.06621
1.06251
1.05837
1.05423
1.0499
1.04546
1.04061
1.03566
1.03069
1.02571
1.01756
1.00909
1.00569
1.00282
0.99613
0.988834
0.981547
0.974397
0.967338
0.960641
0.952643
0.945654
0.938641
0.932655
0.925267
0.919686
0.913424
0.909357
0.904099
0.903264
0.900476
0.902676
0.906103
0.90595
0.913989
0.915035
0.920542
0.927754
0.931392
0.940426
0.942774
0.951178
0.953159
0.962682
0.965043
0.973751
0.97607
0.982228
0.985265
0.992089
0.995917
1.00185
1.00657
1.0113
1.01642
1.02171
1.02752
1.03295
1.0381
1.04387
1.05005
1.05685
1.06336
1.07041
1.07747
1.08599
1.09359
1.10115
1.10769
1.11616
1.12509
1.13462
1.14432
1.15547
1.16673
1.17887
1.19175
1.206
1.2218
1.23813
1.25443
1.2728
1.29242
1.31219
1.33354
1.35374
1.37324
1.38048
1.38978
1.35976
1.32077
1.24029
1.13818
1.01592
0.919427
0.846772
0.817259
0.741107
0.68263
0.629712
0.622811
0.571491
0.569343
0.545777
0.549229
0.535199
0.534367
0.534094
0.536049
0.538397
0.539059
0.541011
0.543572
0.54673
0.549147
0.552246
0.554653
0.557532
0.5599
0.561919
0.563322
0.565479
0.567756
0.57069
0.572271
0.573024
0.572821
0.572556
0.571357
0.573506
0.576309
0.579901
0.582298
0.584068
0.586119
0.590788
0.592979
0.59314
0.590134
0.585794
0.584097
0.582319
0.580863
0.582341
0.578891
0.576843
0.574449
0.572868
0.566856
0.566042
0.561385
0.559787
0.558164
0.55653
0.552452
0.557274
0.553039
0.542524
0.547301
0.53768
0.540745
0.530515
0.531876
0.525083
0.523421
0.534795
0.566062
0.65712
0.757202
0.789566
0.805341
0.817186
0.827619
0.836928
0.845764
0.85522
0.86418
0.869903
0.875522
0.882928
0.89112
0.896903
0.9018
0.907298
0.91363
0.919428
0.924858
0.930132
0.935318
0.940373
0.94531
0.950128
0.95483
0.959209
0.963527
0.967606
0.97167
0.975488
0.979275
0.982842
0.986368
0.989693
0.992935
0.996054
0.999014
1.00197
1.00463
1.00743
1.00972
1.01245
1.01442
1.01718
1.01875
1.02148
1.02258
1.02537
1.02598
1.02892
1.02903
1.03216
1.03172
1.03508
1.03407
1.03776
1.03616
1.04022
1.03802
1.04248
1.03962
1.04454
1.04102
1.04644
1.04222
1.04819
1.04323
1.0498
1.04404
1.05129
1.04465
1.05288
1.04465
1.05608
1.04306
1.05917
1.05262
1.0579
1.0549
1.06091
1.05645
1.06333
1.05941
1.06628
1.06084
1.0638
1.05615
1.0579
1.04763
1.05035
1.03664
1.03979
1.02415
1.03427
1.01781
1.02529
1.00738
1.02099
0.997515
0.999038
0.967924
1.00051
0.973536
1.01004
0.997789
0.949418
0.994232
0.994306
0.949349
0.997617
1.01029
0.973631
1.00046
0.967973
0.999194
0.997557
1.02084
1.00756
1.02542
1.01779
1.03441
1.02425
1.03969
1.03716
1.0504
1.04751
1.05846
1.05612
1.06461
1.06104
1.06726
1.06023
1.06568
1.05959
1.06617
1.06172
1.06677
1.06562
1.07092
1.06078
1.07416
1.06716
1.07605
1.07261
1.07917
1.0774
1.08263
1.08155
1.0857
1.08508
1.08854
1.08847
1.09137
1.0918
1.09428
1.09443
1.0972
1.09715
1.0992
1.09986
1.102
1.10155
1.10308
1.10405
1.10437
1.10455
1.10701
1.1075
1.10796
1.10803
1.10837
1.10837
1.10895
1.10871
1.10808
1.10793
1.10789
1.10752
1.10714
1.10642
1.10545
1.10454
1.10341
1.10251
1.10136
1.10026
1.09883
1.09769
1.09611
1.09469
1.0926
1.0906
1.08842
1.08615
1.0838
1.08148
1.07895
1.07602
1.07287
1.06968
1.06616
1.06247
1.05834
1.0542
1.04987
1.04544
1.04059
1.03565
1.03068
1.02568
1.01758
1.00921
1.00577
1.00283
0.996153
0.988907
0.981642
0.974515
0.967469
0.960769
0.952814
0.945859
0.938871
0.932906
0.925549
0.920044
0.913794
0.90976
0.904473
0.903747
0.901076
0.903133
0.906326
0.906315
0.914167
0.915227
0.920782
0.92808
0.931772
0.941023
0.94304
0.951661
0.953395
0.962914
0.965008
0.973739
0.976055
0.982592
0.985509
0.992592
0.996279
1.00235
1.00682
1.01175
1.01652
1.02235
1.02811
1.03359
1.03869
1.04463
1.05059
1.05756
1.06376
1.07129
1.07821
1.08668
1.09427
1.10189
1.10882
1.11733
1.12606
1.13552
1.14538
1.15684
1.16822
1.18023
1.19267
1.2068
1.22175
1.23868
1.25425
1.2724
1.29221
1.31427
1.3362
1.35804
1.38029
1.38699
1.40005
1.36738
1.32526
1.24013
1.13904
1.01441
0.923392
0.853127
0.828221
0.751798
0.693216
0.639238
0.632307
0.580941
0.579212
0.553595
0.555465
0.54107
0.537996
0.539282
0.538627
0.540927
0.541774
0.543437
0.545638
0.54878
0.550674
0.553723
0.55647
0.55897
0.561003
0.563126
0.564382
0.566458
0.56853
0.571491
0.573104
0.573915
0.573178
0.573458
0.572087
0.574062
0.576794
0.580247
0.58259
0.584405
0.586455
0.591061
0.593436
0.593397
0.590442
0.586421
0.584291
0.582237
0.581354
0.582565
0.579305
0.576973
0.574557
0.572961
0.56757
0.566726
0.561522
0.560617
0.558322
0.557128
0.552137
0.557224
0.553131
0.54305
0.547453
0.537447
0.540936
0.531141
0.532238
0.525113
0.52379
0.534422
0.565447
0.656545
0.757305
0.79043
0.805734
0.817333
0.827715
0.837028
0.845864
0.855289
0.864217
0.869959
0.875602
0.882986
0.891143
0.89693
0.901852
0.907357
0.913672
0.919465
0.9249
0.930176
0.935363
0.940418
0.945353
0.950166
0.954863
0.959243
0.963561
0.967639
0.971705
0.975523
0.979308
0.982874
0.986396
0.989719
0.992962
0.996082
0.999044
1.002
1.00465
1.00746
1.00975
1.01248
1.01446
1.0172
1.01878
1.02151
1.02261
1.02539
1.02602
1.02894
1.02906
1.03218
1.03175
1.03511
1.03411
1.03778
1.0362
1.04025
1.03805
1.0425
1.03966
1.04456
1.04106
1.04646
1.04229
1.04823
1.04332
1.04985
1.0442
1.0513
1.04502
1.05255
1.04601
1.0538
1.04732
1.057
1.05074
1.05773
1.05649
1.0621
1.06166
1.06741
1.06386
1.06754
1.06235
1.06427
1.05732
1.05722
1.0473
1.05064
1.03659
1.03944
1.02434
1.03395
1.01783
1.02544
1.00729
1.02052
0.997073
0.998641
0.967714
1.00038
0.973204
1.00968
0.99806
0.948909
0.994153
0.993427
0.949057
0.99794
1.00989
0.973281
1.00056
0.967683
0.998921
0.99715
1.02062
1.00747
1.0256
1.01786
1.0342
1.02456
1.03923
1.03744
1.05065
1.04735
1.05768
1.05684
1.06445
1.06168
1.06766
1.06296
1.06767
1.06229
1.06492
1.05928
1.06318
1.05912
1.06569
1.06391
1.06904
1.06849
1.07357
1.07299
1.07788
1.07723
1.0818
1.08111
1.08518
1.08461
1.08817
1.08801
1.09099
1.09127
1.09388
1.09397
1.09673
1.09672
1.09878
1.09948
1.10154
1.10112
1.10273
1.10373
1.10421
1.10427
1.10659
1.10719
1.10753
1.10778
1.10806
1.10815
1.1086
1.10844
1.10791
1.10765
1.10762
1.10724
1.10694
1.10622
1.10529
1.10436
1.10325
1.10234
1.10119
1.10011
1.0987
1.09754
1.09598
1.09455
1.09249
1.0905
1.08832
1.08606
1.08371
1.08137
1.07884
1.07593
1.0728
1.06962
1.06611
1.06242
1.0583
1.05417
1.04985
1.04542
1.04059
1.03567
1.03067
1.02565
1.01767
1.00946
1.00592
1.0028
0.996191
0.989042
0.981815
0.974714
0.967694
0.961008
0.953099
0.946225
0.939258
0.933281
0.926038
0.920568
0.914404
0.910298
0.905185
0.904338
0.901732
0.904015
0.907097
0.907235
0.914928
0.916111
0.921721
0.928779
0.932218
0.941196
0.943466
0.951976
0.953945
0.963329
0.965921
0.974443
0.976962
0.982864
0.986108
0.992629
0.996587
1.00253
1.00746
1.01226
1.01764
1.0228
1.02855
1.03405
1.03932
1.04507
1.05145
1.05827
1.06495
1.07196
1.07917
1.08762
1.09517
1.10314
1.10989
1.11854
1.12758
1.13742
1.14725
1.15844
1.16976
1.18232
1.19556
1.2096
1.22547
1.24137
1.25752
1.27545
1.2948
1.31459
1.33593
1.35358
1.36878
1.37619
1.38315
1.36417
1.32811
1.26123
1.17464
1.06832
0.976881
0.898389
0.85897
0.782993
0.725578
0.668457
0.654884
0.599679
0.590779
0.565394
0.564889
0.548764
0.546501
0.541898
0.542956
0.545116
0.545676
0.546771
0.548149
0.550983
0.553087
0.556091
0.558457
0.560911
0.562884
0.564773
0.565894
0.567838
0.569846
0.572807
0.574232
0.574869
0.574994
0.57429
0.572935
0.574905
0.577454
0.580962
0.583154
0.584889
0.586981
0.59156
0.59375
0.594267
0.591428
0.586869
0.585073
0.583386
0.581326
0.5829
0.579525
0.577502
0.575107
0.573534
0.567265
0.566398
0.562003
0.560262
0.558704
0.557278
0.553271
0.557379
0.554155
0.543108
0.547808
0.538795
0.54143
0.531062
0.532519
0.526007
0.524013
0.534604
0.564865
0.656539
0.758261
0.791085
0.806023
0.817495
0.827812
0.83714
0.845997
0.855355
0.864214
0.87
0.875733
0.88309
0.891144
0.896928
0.901926
0.907458
0.913746
0.919523
0.924964
0.930245
0.935431
0.940484
0.945423
0.950233
0.954929
0.95931
0.963631
0.96771
0.97177
0.975587
0.979372
0.982939
0.986465
0.989791
0.993033
0.996153
0.999111
1.00207
1.00472
1.00752
1.00982
1.01256
1.01453
1.01728
1.01885
1.02158
1.02267
1.02546
1.02608
1.02901
1.02912
1.03224
1.0318
1.03517
1.03416
1.03785
1.03625
1.04032
1.03809
1.04257
1.0397
1.04463
1.0411
1.04655
1.04232
1.04833
1.04336
1.04999
1.04426
1.05162
1.04505
1.05344
1.04578
1.05587
1.04723
1.05737
1.05168
1.05815
1.05451
1.06018
1.05614
1.06264
1.05934
1.06591
1.06099
1.06356
1.05629
1.0576
1.0476
1.05029
1.03641
1.03983
1.02407
1.0342
1.01779
1.02531
1.00738
1.02096
0.997539
0.998989
0.968038
1.0005
0.97359
1.00998
0.997828
0.949467
0.99449
0.994607
0.949459
0.997732
1.01042
0.973677
1.00038
0.968256
0.999234
0.997602
1.02101
1.00769
1.02543
1.01778
1.03449
1.02426
1.03975
1.03749
1.05038
1.04765
1.05862
1.05614
1.06497
1.06089
1.06767
1.06049
1.06645
1.0609
1.06757
1.06318
1.06879
1.06526
1.07101
1.06532
1.07397
1.06878
1.07658
1.07297
1.07938
1.07716
1.08237
1.08105
1.08528
1.08457
1.08805
1.08796
1.09081
1.09114
1.09371
1.09375
1.09648
1.09659
1.09847
1.0993
1.10141
1.10081
1.1022
1.10343
1.10419
1.10416
1.10629
1.10686
1.10724
1.10757
1.10784
1.10791
1.10837
1.10824
1.1077
1.10748
1.10746
1.10705
1.10673
1.10604
1.10516
1.1042
1.1031
1.10218
1.10106
1.09998
1.09858
1.09743
1.09585
1.09442
1.09238
1.09039
1.08822
1.08596
1.08362
1.08128
1.07874
1.07584
1.07272
1.06954
1.06604
1.06235
1.05825
1.05412
1.04981
1.04538
1.04056
1.03565
1.03065
1.0256
1.01769
1.00962
1.00604
1.00282
0.996221
0.989141
0.981943
0.974877
0.967871
0.961175
0.953334
0.9465
0.939578
0.933639
0.926413
0.921058
0.914883
0.910877
0.905683
0.905076
0.902546
0.904457
0.907508
0.907662
0.915166
0.916431
0.921873
0.929245
0.932803
0.942009
0.943917
0.952565
0.954353
0.963712
0.965689
0.97427
0.976722
0.983448
0.986352
0.993407
0.997148
1.00321
1.00776
1.01284
1.01756
1.0236
1.02933
1.0349
1.03999
1.04608
1.05201
1.05908
1.06512
1.07297
1.07992
1.08841
1.09605
1.10374
1.11091
1.1196
1.12829
1.13821
1.14809
1.15965
1.17084
1.18318
1.19595
1.21005
1.22455
1.24131
1.25656
1.27458
1.29323
1.31388
1.33322
1.3531
1.36844
1.3733
1.3808
1.35554
1.32311
1.25271
1.17077
1.06354
0.97804
0.902839
0.864757
0.791184
0.736303
0.677091
0.663459
0.607529
0.602105
0.572904
0.571035
0.554869
0.550178
0.547068
0.548102
0.54819
0.548565
0.549486
0.550865
0.552863
0.555349
0.557585
0.560386
0.562491
0.564125
0.566192
0.567239
0.568954
0.570783
0.573721
0.575264
0.575975
0.57561
0.57554
0.573679
0.575535
0.578154
0.581403
0.583581
0.585369
0.587439
0.591921
0.59432
0.594527
0.591942
0.5878
0.585404
0.583175
0.581996
0.583531
0.579942
0.577759
0.575099
0.573972
0.568184
0.567724
0.562566
0.561052
0.559075
0.558324
0.55302
0.557334
0.554124
0.543984
0.5482
0.538247
0.541843
0.532034
0.53314
0.526048
0.524585
0.534221
0.563739
0.655693
0.758881
0.792239
0.806777
0.817786
0.828014
0.837343
0.846176
0.855482
0.864296
0.87011
0.875858
0.883172
0.891192
0.896992
0.902014
0.907542
0.913802
0.919569
0.925016
0.930302
0.935492
0.940546
0.945478
0.950278
0.954961
0.95934
0.963661
0.967742
0.971807
0.975625
0.979407
0.982969
0.986486
0.989806
0.993048
0.996166
0.999129
1.00208
1.00474
1.00754
1.00984
1.01257
1.01455
1.01728
1.01886
1.02158
1.02269
1.02546
1.0261
1.02901
1.02914
1.03224
1.03183
1.03516
1.03419
1.03784
1.03629
1.0403
1.03814
1.04255
1.03976
1.04461
1.04118
1.04652
1.04244
1.04828
1.04356
1.0499
1.04462
1.05139
1.04574
1.05284
1.04713
1.05449
1.04906
1.05682
1.05173
1.05866
1.0557
1.06046
1.0593
1.06586
1.06299
1.0668
1.0623
1.064
1.05738
1.05694
1.04754
1.05038
1.03646
1.03935
1.02425
1.03378
1.01786
1.02544
1.00722
1.02058
0.997109
0.99879
0.967762
1.00022
0.973138
1.00959
0.998132
0.948791
0.994242
0.993325
0.949098
0.998028
1.00993
0.973244
1.00052
0.96773
0.998889
0.997045
1.02071
1.00759
1.02567
1.01783
1.03428
1.02465
1.03921
1.03767
1.05052
1.04743
1.05771
1.05679
1.06471
1.06149
1.06784
1.06284
1.06802
1.06251
1.06606
1.06113
1.06574
1.06238
1.06818
1.06585
1.07093
1.06959
1.07442
1.07338
1.07803
1.07715
1.08152
1.08077
1.08473
1.08415
1.08764
1.08748
1.09045
1.09058
1.09333
1.09323
1.09601
1.09619
1.09799
1.09889
1.10105
1.10037
1.10161
1.10298
1.104
1.10394
1.10584
1.10634
1.10683
1.10718
1.10751
1.1076
1.108
1.10791
1.10749
1.10717
1.10715
1.10672
1.10645
1.1058
1.10492
1.104
1.10291
1.10198
1.10084
1.0998
1.0984
1.09723
1.09568
1.09425
1.09223
1.09026
1.08808
1.08584
1.08349
1.08114
1.0786
1.07572
1.07262
1.06946
1.06596
1.06228
1.05819
1.05408
1.04977
1.04535
1.04055
1.03565
1.03064
1.02557
1.01778
1.00986
1.00622
1.0028
0.99627
0.989291
0.98214
0.975104
0.968136
0.961465
0.953663
0.946937
0.940037
0.934071
0.926989
0.921654
0.915613
0.911486
0.906551
0.90568
0.903243
0.905583
0.90834
0.908661
0.915978
0.917365
0.923015
0.929939
0.933178
0.94215
0.944256
0.952907
0.954809
0.964035
0.966827
0.975242
0.977938
0.983699
0.987103
0.993377
0.997298
1.00331
1.00831
1.01327
1.01887
1.02408
1.02968
1.03534
1.04069
1.04635
1.05296
1.05974
1.06655
1.07363
1.08101
1.08938
1.0968
1.10506
1.11208
1.12104
1.13018
1.14012
1.15003
1.16125
1.17262
1.18507
1.19861
1.21241
1.2279
1.24333
1.25934
1.27649
1.2947
1.31308
1.3324
1.34776
1.36269
1.36819
1.37639
1.35415
1.32436
1.26713
1.19457
1.10421
1.01921
0.940564
0.892987
0.821977
0.766192
0.705117
0.686081
0.628792
0.615125
0.585886
0.580251
0.563398
0.558868
0.551428
0.55134
0.553046
0.552436
0.552467
0.553396
0.5554
0.557073
0.560211
0.562219
0.564471
0.565979
0.567859
0.568813
0.570355
0.572158
0.575039
0.576539
0.577222
0.577325
0.576458
0.575016
0.57656
0.578845
0.582118
0.584207
0.585957
0.588083
0.592502
0.594807
0.595653
0.592814
0.588251
0.586354
0.584406
0.582156
0.583455
0.580457
0.578478
0.575955
0.574108
0.568186
0.566939
0.56261
0.561319
0.55934
0.558196
0.554103
0.557605
0.555507
0.54384
0.54835
0.540038
0.542223
0.531831
0.5335
0.527094
0.524622
0.533938
0.562441
0.655069
0.76008
0.793733
0.807337
0.818106
0.828201
0.837535
0.846382
0.855598
0.864352
0.870212
0.876032
0.883304
0.891216
0.897013
0.902105
0.907654
0.913893
0.919652
0.925102
0.930384
0.935562
0.940611
0.945547
0.950347
0.955035
0.959418
0.963739
0.967815
0.971867
0.975679
0.979461
0.983025
0.98655
0.989876
0.993117
0.996233
0.999189
1.00214
1.00479
1.00759
1.0099
1.01263
1.01462
1.01734
1.01892
1.02163
1.02274
1.02552
1.02615
1.02906
1.02918
1.03228
1.03186
1.03521
1.03422
1.0379
1.03632
1.04037
1.03815
1.04262
1.03976
1.0447
1.04118
1.04664
1.04243
1.04845
1.04355
1.05016
1.04459
1.05185
1.04566
1.05365
1.04693
1.0556
1.04887
1.05726
1.05179
1.05887
1.05414
1.06113
1.05703
1.0625
1.05933
1.06549
1.0612
1.06329
1.0564
1.05728
1.04765
1.05017
1.03629
1.03984
1.02402
1.03408
1.01777
1.0252
1.0073
1.021
0.997483
0.998982
0.968007
1.00068
0.973598
1.00994
0.998178
0.949568
0.994493
0.994591
0.949467
0.997749
1.01054
0.973778
1.00028
0.968266
0.999335
0.997606
1.02114
1.0078
1.0254
1.01774
1.03461
1.02424
1.03973
1.03767
1.05039
1.04775
1.05879
1.05608
1.06522
1.06076
1.06814
1.06082
1.06721
1.06209
1.06856
1.06442
1.06971
1.06618
1.07148
1.06767
1.07405
1.07039
1.07669
1.07374
1.07936
1.0773
1.08214
1.08085
1.08491
1.08421
1.08756
1.08752
1.09028
1.09051
1.09317
1.09306
1.09576
1.09607
1.09763
1.09855
1.10082
1.10012
1.10108
1.10256
1.10388
1.10389
1.10552
1.106
1.10644
1.10697
1.10718
1.10734
1.10769
1.10762
1.10722
1.10699
1.10698
1.1065
1.10617
1.10552
1.10473
1.10382
1.10274
1.10178
1.10066
1.09963
1.09824
1.0971
1.09551
1.09409
1.09208
1.09011
1.08795
1.08571
1.08337
1.08101
1.07847
1.07561
1.07252
1.06935
1.06586
1.06219
1.05812
1.05402
1.04972
1.0453
1.04051
1.03562
1.03062
1.02551
1.01779
1.01006
1.00635
1.00284
0.996314
0.989421
0.982302
0.97531
0.968359
0.961669
0.953959
0.947276
0.94044
0.934532
0.927448
0.922259
0.916176
0.912211
0.907142
0.906606
0.904167
0.905982
0.908963
0.909211
0.916364
0.917937
0.923109
0.930538
0.934
0.943143
0.94489
0.953532
0.95537
0.964603
0.966484
0.974776
0.977327
0.984231
0.987269
0.994238
0.998136
1.00408
1.00884
1.01395
1.01872
1.0248
1.03047
1.03618
1.04118
1.04745
1.05341
1.0606
1.06662
1.07478
1.08159
1.09009
1.09778
1.10561
1.11303
1.12193
1.13045
1.1408
1.15071
1.16224
1.17332
1.18593
1.19877
1.21269
1.22676
1.24271
1.25759
1.27507
1.29256
1.31166
1.32868
1.3458
1.35892
1.36175
1.36864
1.34416
1.31541
1.25623
1.18935
1.09612
1.01901
0.943487
0.896949
0.82719
0.773826
0.712395
0.693488
0.635723
0.625915
0.594297
0.586934
0.568991
0.563258
0.556691
0.555532
0.555926
0.55628
0.555356
0.556318
0.557045
0.559769
0.561515
0.564444
0.565977
0.567939
0.569211
0.570306
0.571466
0.573627
0.57563
0.577907
0.578405
0.57821
0.577837
0.575634
0.577146
0.579638
0.582685
0.584692
0.586507
0.588591
0.592894
0.59536
0.595971
0.59373
0.589377
0.586679
0.584265
0.582889
0.58455
0.580674
0.578954
0.575767
0.575276
0.569021
0.568699
0.563688
0.561626
0.559888
0.559497
0.55431
0.557664
0.555547
0.544997
0.549068
0.539468
0.543146
0.532853
0.534139
0.527367
0.525402
0.533547
0.56089
0.653936
0.761488
0.795371
0.808388
0.818524
0.828498
0.83784
0.846648
0.85579
0.864476
0.870368
0.876202
0.883421
0.8913
0.897117
0.902229
0.90777
0.913968
0.919712
0.925168
0.930458
0.935649
0.9407
0.945625
0.950408
0.955075
0.95945
0.963771
0.967852
0.971916
0.975731
0.979508
0.983062
0.98657
0.989883
0.993124
0.996236
0.999204
1.00215
1.00481
1.00761
1.00992
1.01264
1.01463
1.01733
1.01893
1.02162
1.02276
1.0255
1.02617
1.02905
1.02921
1.03227
1.03189
1.03518
1.03426
1.03786
1.03637
1.04031
1.03822
1.04255
1.03986
1.04462
1.04131
1.04653
1.04263
1.04829
1.04386
1.04993
1.04509
1.05148
1.04642
1.05304
1.04801
1.05476
1.04997
1.05681
1.05243
1.05871
1.05548
1.06079
1.05866
1.06322
1.06191
1.0659
1.06207
1.06368
1.05734
1.05686
1.04769
1.05025
1.03626
1.0394
1.02423
1.03364
1.01796
1.02546
1.00726
1.02071
0.997141
0.99892
0.967726
1.00022
0.973152
1.00947
0.998363
0.948754
0.994371
0.993268
0.94926
0.998042
1.00997
0.973279
1.00063
0.967648
0.999012
0.99707
1.02074
1.00773
1.02563
1.01778
1.03439
1.02477
1.03912
1.03787
1.05048
1.04754
1.05773
1.05674
1.0649
1.0613
1.0681
1.06274
1.0685
1.06293
1.06729
1.06286
1.06774
1.06468
1.06985
1.06752
1.07233
1.07067
1.07524
1.07394
1.0783
1.07727
1.08143
1.0806
1.08442
1.08379
1.08718
1.08701
1.08996
1.08994
1.09283
1.09254
1.0953
1.09568
1.09707
1.09796
1.10042
1.0997
1.10044
1.10203
1.10355
1.10364
1.10504
1.10532
1.10607
1.10637
1.10688
1.10687
1.10732
1.10721
1.10688
1.10667
1.10665
1.10621
1.10577
1.10523
1.10441
1.10361
1.10246
1.10154
1.10039
1.0994
1.09801
1.09684
1.09531
1.09387
1.0919
1.08994
1.08778
1.08555
1.0832
1.08084
1.07829
1.07545
1.07239
1.06924
1.06576
1.0621
1.05804
1.05396
1.04966
1.04525
1.04048
1.03561
1.03061
1.02549
1.01787
1.0103
1.00656
1.00283
0.996374
0.989587
0.982524
0.975562
0.96866
0.962006
0.954327
0.947777
0.94097
0.935019
0.928094
0.922883
0.916978
0.912824
0.908126
0.907262
0.904929
0.90724
0.909878
0.910179
0.917129
0.918742
0.924304
0.931071
0.934146
0.943047
0.945134
0.953791
0.955775
0.964773
0.967715
0.976137
0.978851
0.984613
0.988131
0.994247
0.998049
1.00426
1.00922
1.01428
1.01998
1.02535
1.0308
1.03658
1.0421
1.04763
1.05446
1.06114
1.06812
1.07527
1.08282
1.09107
1.09839
1.10683
1.11419
1.12335
1.13257
1.14243
1.15255
1.16376
1.17517
1.18739
1.20109
1.21454
1.22924
1.24395
1.2596
1.27589
1.29296
1.30987
1.32649
1.3402
1.35227
1.35549
1.36311
1.33921
1.31706
1.26573
1.20504
1.12688
1.05137
0.975823
0.922741
0.856037
0.800944
0.738921
0.715106
0.658401
0.639631
0.60705
0.597259
0.577788
0.572662
0.561938
0.561422
0.560537
0.558211
0.558893
0.559715
0.559903
0.562071
0.563596
0.566498
0.567844
0.569894
0.570851
0.571997
0.572775
0.574749
0.576883
0.579135
0.579731
0.579591
0.579211
0.576819
0.578158
0.580355
0.583356
0.585259
0.58715
0.589157
0.593403
0.596116
0.596956
0.5944
0.589734
0.588226
0.585368
0.583304
0.584308
0.581551
0.579601
0.576986
0.574617
0.569408
0.567782
0.56358
0.56247
0.5602
0.559308
0.554955
0.557963
0.557001
0.544897
0.549081
0.541182
0.543085
0.532937
0.534873
0.528322
0.52533
0.533066
0.559183
0.652783
0.763416
0.797312
0.809209
0.818994
0.828757
0.838111
0.846935
0.855962
0.864594
0.870534
0.876422
0.883585
0.891349
0.897163
0.90234
0.907897
0.914082
0.919822
0.925275
0.930554
0.935722
0.940761
0.945691
0.950478
0.955158
0.959541
0.963857
0.967928
0.971969
0.975771
0.979548
0.983106
0.986631
0.989953
0.993193
0.996301
0.999254
1.00219
1.00484
1.00763
1.00997
1.01268
1.01469
1.01738
1.01897
1.02166
1.02279
1.02554
1.0262
1.02907
1.02923
1.03229
1.03191
1.03522
1.03427
1.03791
1.03637
1.04038
1.0382
1.04264
1.03982
1.04473
1.04126
1.04668
1.04256
1.04851
1.04377
1.05026
1.04497
1.05198
1.04623
1.05373
1.04774
1.05555
1.04967
1.05735
1.05197
1.05922
1.05421
1.0613
1.05665
1.06371
1.05936
1.06532
1.06124
1.06298
1.05643
1.05698
1.04772
1.05015
1.03615
1.03969
1.02406
1.03397
1.01778
1.02518
1.00741
1.02103
0.99749
0.99905
0.967783
1.00083
0.973619
1.00991
0.99841
0.949553
0.994598
0.994667
0.949543
0.997663
1.01064
0.973805
1.00014
0.968311
0.999455
0.997614
1.02121
1.00792
1.02532
1.01775
1.03472
1.02428
1.03975
1.03791
1.05019
1.04797
1.05906
1.05601
1.06541
1.06053
1.06868
1.06113
1.06787
1.06326
1.06924
1.06555
1.07029
1.06741
1.07198
1.06932
1.07424
1.07178
1.07672
1.07462
1.07924
1.07767
1.08189
1.08086
1.08454
1.08397
1.08708
1.08711
1.08977
1.08989
1.09264
1.09243
1.09501
1.09559
1.09675
1.09748
1.1
1.09949
1.10017
1.10151
1.10327
1.10347
1.1047
1.10499
1.10561
1.10608
1.10651
1.10662
1.10694
1.10689
1.10658
1.10642
1.10641
1.10593
1.10548
1.10492
1.10418
1.10333
1.10225
1.1013
1.10018
1.09918
1.09782
1.09667
1.09509
1.09367
1.09171
1.08976
1.08761
1.08539
1.08305
1.08068
1.07814
1.07531
1.07225
1.06911
1.06563
1.06198
1.05796
1.05387
1.04959
1.04519
1.04044
1.03558
1.03059
1.02542
1.01789
1.01052
1.00672
1.00288
0.996436
0.989748
0.982719
0.975814
0.968928
0.962247
0.95468
0.948176
0.941479
0.935537
0.928752
0.923458
0.917753
0.913418
0.909095
0.90789
0.905839
0.907566
0.910494
0.910873
0.917634
0.919513
0.924429
0.931815
0.935211
0.944287
0.945785
0.95455
0.956384
0.965557
0.967353
0.975386
0.978
0.98509
0.988313
0.995199
0.999273
1.00503
1.00998
1.01501
1.01988
1.02602
1.03159
1.03749
1.04243
1.04887
1.05475
1.06201
1.0682
1.07655
1.0833
1.09174
1.09939
1.10742
1.11515
1.12417
1.13266
1.14301
1.15301
1.16454
1.17552
1.18781
1.20054
1.21414
1.22799
1.24278
1.25733
1.27409
1.29034
1.30724
1.32233
1.33693
1.34767
1.34917
1.35572
1.33211
1.30625
1.25391
1.19887
1.11802
1.04995
0.974856
0.924572
0.85888
0.806884
0.745671
0.721804
0.664296
0.651681
0.614228
0.604276
0.585327
0.57732
0.568195
0.56524
0.56388
0.563208
0.562376
0.562009
0.562601
0.56434
0.565713
0.568185
0.569627
0.57168
0.572527
0.573488
0.574249
0.575955
0.578299
0.580064
0.580788
0.581092
0.580335
0.577746
0.579113
0.581129
0.584025
0.585825
0.587683
0.589685
0.593811
0.596807
0.597413
0.595396
0.591068
0.588212
0.585471
0.58411
0.585358
0.581666
0.580229
0.576691
0.576596
0.570198
0.569381
0.564756
0.562848
0.560407
0.560661
0.55556
0.558195
0.557242
0.546034
0.549923
0.541102
0.544637
0.533614
0.53522
0.528987
0.526146
0.532866
0.557259
0.651144
0.765597
0.799383
0.810524
0.819524
0.829139
0.838514
0.847288
0.856219
0.864757
0.870733
0.876638
0.883741
0.891473
0.897311
0.902502
0.908045
0.914178
0.919898
0.925358
0.93065
0.935839
0.940883
0.945795
0.950559
0.955204
0.959572
0.963891
0.967972
0.972031
0.975842
0.979609
0.983152
0.986648
0.98995
0.993189
0.996293
0.999266
1.0022
1.00487
1.00765
1.00998
1.01268
1.01468
1.01735
1.01897
1.02162
1.02281
1.02551
1.02623
1.02904
1.02926
1.03225
1.03194
1.03516
1.03432
1.03783
1.03643
1.04027
1.0383
1.04251
1.03995
1.04457
1.04145
1.04649
1.04284
1.04826
1.04417
1.04993
1.04552
1.05153
1.04697
1.05315
1.04861
1.05489
1.05054
1.05681
1.05277
1.05876
1.05533
1.06092
1.05814
1.06385
1.0606
1.06501
1.0616
1.06328
1.05724
1.05672
1.04789
1.04986
1.03614
1.03928
1.02415
1.03355
1.01795
1.02556
1.00723
1.02068
0.997022
0.99888
0.967465
1.00013
0.973092
1.00937
0.998436
0.94869
0.994391
0.993481
0.949317
0.997884
1.01003
0.973326
1.00063
0.967578
0.999083
0.997122
1.02078
1.00792
1.0255
1.01777
1.03446
1.02497
1.03908
1.03807
1.05035
1.04769
1.0576
1.05677
1.06464
1.06127
1.06847
1.06259
1.06904
1.0636
1.0685
1.06439
1.0693
1.06636
1.07119
1.06889
1.07346
1.07168
1.07595
1.07453
1.07859
1.07747
1.08141
1.08051
1.08419
1.08349
1.08683
1.08658
1.08951
1.08935
1.09232
1.09192
1.09448
1.09512
1.09615
1.09666
1.09946
1.09918
1.09977
1.1009
1.10271
1.1031
1.10423
1.10436
1.10515
1.10545
1.10621
1.10605
1.1065
1.1064
1.1061
1.106
1.10602
1.10562
1.10505
1.10457
1.10383
1.10304
1.10189
1.10102
1.09988
1.09889
1.09754
1.09635
1.09484
1.09341
1.09148
1.08956
1.0874
1.08519
1.08284
1.08047
1.07792
1.07511
1.07209
1.06896
1.06551
1.06187
1.05785
1.05379
1.04951
1.04512
1.04039
1.03556
1.03057
1.02541
1.01797
1.01076
1.00694
1.00289
0.996509
0.989938
0.982974
0.976093
0.969286
0.962632
0.95516
0.948691
0.942058
0.936076
0.929418
0.9241
0.918493
0.914086
0.91003
0.908644
0.906727
0.908832
0.911446
0.911862
0.918449
0.920161
0.925756
0.932266
0.935179
0.943993
0.946072
0.954646
0.956846
0.965575
0.968581
0.977018
0.979731
0.985535
0.989243
0.995229
0.998983
1.00536
1.01018
1.01531
1.02105
1.02657
1.03196
1.03771
1.0435
1.04902
1.05605
1.06265
1.0698
1.07687
1.0845
1.09261
1.10006
1.10864
1.11637
1.12537
1.13483
1.14455
1.15471
1.16589
1.17733
1.18932
1.20247
1.21556
1.22954
1.2434
1.2587
1.27398
1.28954
1.30484
1.31926
1.33143
1.3413
1.34355
1.35062
1.33007
1.30741
1.26185
1.2096
1.14144
1.07497
1.00345
0.948356
0.885475