/*--------------------------------*- C++ -*----------------------------------*\
| =========                 |                                                 |
| \\      /  F ield         | OpenFOAM: The Open Source CFD Toolbox           |
|  \\    /   O peration     | Version:  v2006                                 |
|   \\  /    A nd           | Website:  www.openfoam.com                      |
|    \\/     M anipulation  |                                                 |
\*---------------------------------------------------------------------------*/
FoamFile
{
    version     2.0;
    format      ascii;
    class       volScalarField;
    location    "185";
    object      pMean;
}
// * * * * * * * * * * * * * * * * * * * * * * * * * * * * * * * * * * * * * //

dimensions      [1 -1 -2 0 0 0 0];


internalField   nonuniform List<scalar> 
93840
(
1.01859
1.01733
1.01964
1.01691
1.01808
1.01723
1.01839
1.01844
1.01967
1.02027
1.0225
1.02421
1.02791
1.03133
1.03682
1.04205
1.0486
1.05389
1.05976
1.06322
1.06651
1.06822
1.07057
1.06822
1.06594
1.06207
1.05663
1.0516
1.04813
1.04817
1.0436
1.0611
1.04631
1.05484
1.05989
1.06399
1.06702
1.07021
1.07279
1.07562
1.07766
1.07972
1.08155
1.08335
1.08506
1.08693
1.08864
1.09014
1.09152
1.09311
1.09438
1.09552
1.09691
1.09862
1.09943
1.09961
1.10032
1.10125
1.10265
1.1036
1.10397
1.10471
1.10553
1.10563
1.10585
1.10612
1.10615
1.10589
1.1059
1.10567
1.10534
1.10499
1.10448
1.10376
1.10315
1.1023
1.10141
1.10043
1.09919
1.09794
1.0967
1.09531
1.09381
1.09195
1.09002
1.08804
1.08585
1.08367
1.08136
1.07886
1.07584
1.07257
1.06922
1.06559
1.06179
1.05758
1.05331
1.04881
1.0441
1.03895
1.03363
1.02821
1.02274
1.01387
1.0046
1.00057
0.997216
0.989713
0.98149
0.973228
0.965051
0.956827
0.948874
0.939341
0.930652
0.921885
0.914118
0.904858
0.897729
0.889965
0.884347
0.877537
0.875702
0.871986
0.87509
0.877419
0.87754
0.88713
0.887147
0.893704
0.900064
0.906219
0.913429
0.918334
0.924076
0.930064
0.937208
0.942464
0.948524
0.95305
0.957811
0.96266
0.968912
0.97391
0.978795
0.983466
0.988057
0.992541
0.997926
1.00363
1.00905
1.01441
1.02006
1.02601
1.03224
1.03845
1.0451
1.05188
1.05969
1.06743
1.07427
1.08061
1.08838
1.09661
1.10558
1.11525
1.12625
1.13691
1.14732
1.15842
1.17253
1.1879
1.20419
1.21891
1.23724
1.25758
1.28071
1.30778
1.33782
1.36545
1.39101
1.41892
1.41002
1.35532
1.25253
1.13517
0.990347
0.911802
0.873641
0.856768
0.789342
0.744542
0.715641
0.695754
0.681194
0.684719
0.683525
0.685174
0.688623
0.692955
0.700184
0.705246
0.708578
0.711182
0.713512
0.716373
0.718099
0.718874
0.719236
0.718294
0.715253
0.712186
0.710113
0.707854
0.706987
0.707122
0.706771
0.705712
0.704785
0.702332
0.697213
0.695958
0.69842
0.701611
0.705881
0.710327
0.714158
0.717198
0.719285
0.720002
0.716176
0.709244
0.707693
0.705662
0.707482
0.711136
0.714846
0.718626
0.722014
0.724641
0.726746
0.728398
0.730586
0.732721
0.736578
0.740197
0.743684
0.745989
0.753127
0.752492
0.753028
0.759135
0.762335
0.767178
0.771981
0.778441
0.783849
0.790306
0.797897
0.806828
0.8157
0.825099
0.83319
0.841524
0.849422
0.857539
0.864389
0.872151
0.882715
0.892863
0.896618
0.900137
0.907938
0.917259
0.922332
0.925618
0.930564
0.936998
0.942585
0.947427
0.952243
0.956807
0.961144
0.965465
0.969788
0.97386
0.977684
0.981313
0.984789
0.98812
0.991221
0.994132
0.996923
0.999518
1.00187
1.00401
1.00592
1.00777
1.00946
1.01107
1.0126
1.01394
1.01526
1.01669
1.0181
1.01951
1.02057
1.02148
1.02266
1.0236
1.02451
1.02511
1.02586
1.02626
1.02687
1.02713
1.02772
1.02789
1.02886
1.02939
1.03073
1.03126
1.03276
1.03319
1.03484
1.03493
1.03636
1.03577
1.03677
1.03513
1.0355
1.03271
1.03304
1.02985
1.03045
1.02878
1.03107
1.03682
1.04107
1.04604
1.05058
1.05661
1.06271
1.06642
1.06849
1.07077
1.06866
1.06674
1.06335
1.05978
1.05391
1.04852
1.04198
1.03671
1.03127
1.02787
1.02418
1.02241
1.02021
1.01958
1.01829
1.01818
1.01702
1.01787
1.01674
1.01944
1.01715
1.01839
1.01838
1.01715
1.01944
1.01673
1.01787
1.01702
1.01818
1.0183
1.01959
1.02022
1.02243
1.0242
1.0279
1.0313
1.03675
1.04202
1.04856
1.05393
1.05979
1.0633
1.06672
1.06861
1.07084
1.06907
1.06768
1.06418
1.0589
1.05329
1.04989
1.04765
1.0472
1.04757
1.05231
1.05617
1.06028
1.06368
1.06675
1.06977
1.07227
1.07497
1.07703
1.07924
1.08108
1.083
1.08471
1.08654
1.08818
1.08978
1.09118
1.09273
1.09402
1.0953
1.09658
1.09805
1.09895
1.09944
1.10024
1.10112
1.10233
1.10325
1.10376
1.10446
1.10521
1.10539
1.10564
1.10588
1.10594
1.10573
1.10573
1.10549
1.10518
1.10482
1.10433
1.10363
1.10301
1.10218
1.10129
1.10031
1.09909
1.09784
1.09659
1.09519
1.0937
1.09185
1.08993
1.08796
1.08577
1.08359
1.08127
1.07876
1.07576
1.07251
1.06917
1.06554
1.06175
1.05755
1.05329
1.04878
1.04408
1.03894
1.03363
1.02818
1.02267
1.01395
1.00487
1.00071
0.997162
0.989723
0.981612
0.973389
0.965246
0.957038
0.949092
0.939626
0.931017
0.922283
0.914528
0.905359
0.898299
0.890592
0.884975
0.878293
0.876486
0.872871
0.875921
0.878169
0.878367
0.88773
0.887855
0.894418
0.900652
0.906785
0.913903
0.918856
0.924629
0.930579
0.937641
0.942903
0.948943
0.953517
0.958356
0.963228
0.969402
0.974412
0.979344
0.984063
0.988731
0.993319
0.998716
1.00442
1.00988
1.01534
1.02106
1.02708
1.03337
1.03968
1.04644
1.05332
1.06109
1.0688
1.07591
1.08266
1.09068
1.09913
1.10839
1.11826
1.12933
1.14032
1.1516
1.16364
1.17814
1.19348
1.21003
1.22599
1.24516
1.26586
1.28893
1.31323
1.33778
1.3621
1.38176
1.40254
1.39137
1.35292
1.28521
1.19577
1.08832
0.993314
0.936866
0.898606
0.835121
0.787284
0.750974
0.725389
0.705323
0.703079
0.698388
0.697093
0.69854
0.700883
0.706316
0.710532
0.713229
0.715289
0.71706
0.719357
0.720793
0.72134
0.721441
0.720348
0.717204
0.714021
0.711854
0.709485
0.708422
0.708389
0.707978
0.706876
0.705915
0.703561
0.698404
0.696922
0.699199
0.702305
0.706483
0.710874
0.714678
0.717686
0.719727
0.720434
0.716773
0.709923
0.708328
0.70627
0.707969
0.71153
0.715219
0.718981
0.722369
0.724992
0.727102
0.728748
0.730951
0.733082
0.736922
0.740507
0.74407
0.746317
0.753297
0.752902
0.753432
0.759419
0.762685
0.767544
0.772325
0.778758
0.784205
0.790675
0.798232
0.807129
0.815985
0.825362
0.833442
0.84176
0.84963
0.857737
0.864665
0.872461
0.882816
0.892783
0.89673
0.900469
0.908138
0.917218
0.92233
0.925793
0.93076
0.937094
0.942646
0.947506
0.952331
0.956893
0.961229
0.965555
0.969868
0.973926
0.977749
0.981383
0.984855
0.988179
0.991278
0.994189
0.996978
0.999567
1.00192
1.00406
1.00596
1.00781
1.00948
1.01107
1.01258
1.01392
1.01524
1.01667
1.01804
1.01943
1.02048
1.02141
1.02264
1.02357
1.02449
1.02508
1.02582
1.02621
1.02683
1.0271
1.02768
1.02785
1.02884
1.02934
1.03065
1.03114
1.03261
1.03299
1.03457
1.03461
1.03594
1.03529
1.03621
1.03448
1.03487
1.03185
1.0326
1.02851
1.03198
1.02598
1.0368
1.0348
1.03944
1.04216
1.04603
1.0526
1.05864
1.06381
1.06716
1.07014
1.06798
1.06643
1.06324
1.05978
1.05388
1.04858
1.04203
1.03679
1.0313
1.02789
1.0242
1.0225
1.02027
1.01967
1.01844
1.01839
1.01723
1.01808
1.01691
1.01964
1.01733
1.01859
1.0186
1.01734
1.01964
1.01692
1.01809
1.01724
1.0184
1.01845
1.01968
1.02028
1.02252
1.02424
1.02794
1.03137
1.03687
1.0421
1.04865
1.05393
1.05979
1.06328
1.06669
1.06851
1.07094
1.0692
1.06776
1.06467
1.0599
1.056
1.0538
1.05392
1.05409
1.05889
1.05325
1.06148
1.06077
1.06589
1.06707
1.07068
1.07245
1.0753
1.0771
1.07933
1.08108
1.08299
1.08467
1.08647
1.0881
1.08967
1.09108
1.0926
1.0939
1.09517
1.09645
1.09788
1.09878
1.0993
1.10013
1.10101
1.10219
1.10309
1.10362
1.10432
1.10505
1.10525
1.10551
1.10575
1.10581
1.10562
1.10561
1.10538
1.10508
1.10472
1.10422
1.10353
1.10291
1.10208
1.10119
1.10021
1.099
1.09776
1.0965
1.0951
1.0936
1.09176
1.08985
1.08788
1.0857
1.08352
1.0812
1.07869
1.0757
1.07246
1.06912
1.06549
1.0617
1.05751
1.05326
1.04875
1.04406
1.03892
1.03362
1.02817
1.02265
1.01396
1.00497
1.00079
0.997161
0.989739
0.981677
0.973479
0.965356
0.957167
0.949221
0.939797
0.931232
0.922526
0.914782
0.905653
0.898655
0.890959
0.885375
0.878708
0.876948
0.873381
0.876425
0.878623
0.878932
0.888172
0.888382
0.894948
0.901153
0.907263
0.914354
0.919305
0.925101
0.931021
0.938063
0.943305
0.949348
0.95392
0.958801
0.963665
0.969827
0.974823
0.979791
0.984513
0.989232
0.993847
0.999279
1.00497
1.01048
1.01596
1.02173
1.02776
1.0341
1.04043
1.04724
1.05415
1.06192
1.06961
1.0768
1.08366
1.09176
1.10024
1.10955
1.11942
1.13044
1.14136
1.15261
1.16453
1.17883
1.19395
1.21039
1.22631
1.2453
1.26585
1.28896
1.31448
1.34097
1.36711
1.38663
1.40892
1.3953
1.35596
1.28398
1.20141
1.08882
1.0028
0.941233
0.905355
0.842714
0.796848
0.760086
0.734036
0.712641
0.709289
0.704223
0.702174
0.702829
0.704561
0.709099
0.713308
0.715932
0.717727
0.719186
0.721203
0.722476
0.722903
0.722926
0.721832
0.718588
0.715206
0.712959
0.71046
0.709284
0.709136
0.708697
0.707611
0.706609
0.704301
0.699194
0.697469
0.699618
0.702679
0.706814
0.711199
0.715012
0.71801
0.720057
0.720802
0.717192
0.710315
0.708691
0.706597
0.708238
0.711767
0.715456
0.71921
0.722611
0.725236
0.727342
0.728985
0.731181
0.733308
0.737134
0.74071
0.744309
0.746516
0.75344
0.753174
0.753648
0.759602
0.762914
0.767771
0.772542
0.77896
0.784428
0.79089
0.798426
0.807308
0.816157
0.825527
0.833605
0.841908
0.849767
0.857866
0.864812
0.872603
0.882868
0.892797
0.896811
0.900599
0.908211
0.91723
0.922361
0.925863
0.930838
0.937143
0.942675
0.947539
0.952358
0.956916
0.961253
0.965569
0.969864
0.973923
0.977754
0.981387
0.984862
0.988191
0.991288
0.994188
0.996964
0.999538
1.00187
1.004
1.0059
1.00772
1.00936
1.01094
1.01244
1.01377
1.01506
1.01648
1.01783
1.01917
1.02023
1.02117
1.02233
1.02327
1.02416
1.02475
1.02548
1.02587
1.02648
1.02675
1.02737
1.02757
1.02849
1.02897
1.03025
1.03075
1.03222
1.0326
1.03419
1.0342
1.03559
1.03491
1.03583
1.03415
1.03437
1.03166
1.03176
1.02884
1.03005
1.02899
1.03291
1.03377
1.03773
1.04063
1.04513
1.0523
1.05908
1.06381
1.0674
1.07047
1.06855
1.06667
1.06333
1.05976
1.05387
1.04847
1.04193
1.03666
1.03123
1.02785
1.02417
1.0224
1.02021
1.01958
1.0183
1.01818
1.01703
1.01788
1.01675
1.01945
1.01716
1.01839
1.01837
1.01713
1.01943
1.01672
1.01786
1.017
1.01817
1.01828
1.01958
1.02021
1.02242
1.0242
1.02791
1.03131
1.03677
1.04204
1.04858
1.05394
1.05979
1.06328
1.06675
1.0687
1.07101
1.06976
1.06876
1.06588
1.06159
1.05721
1.05437
1.05309
1.05307
1.05478
1.05723
1.05941
1.06222
1.06492
1.06744
1.07012
1.07235
1.07484
1.07679
1.07898
1.08076
1.08271
1.08437
1.08619
1.08775
1.08938
1.09078
1.09231
1.09359
1.09492
1.09615
1.09747
1.09842
1.09911
1.09998
1.10084
1.10192
1.1028
1.1034
1.10408
1.10477
1.10502
1.10531
1.10552
1.10561
1.10544
1.10544
1.10521
1.10492
1.10455
1.10407
1.10339
1.10277
1.10194
1.10106
1.10008
1.09888
1.09765
1.09639
1.09498
1.09348
1.09166
1.08976
1.08779
1.08562
1.08344
1.08111
1.0786
1.07562
1.07239
1.06906
1.06544
1.06166
1.05748
1.05323
1.04873
1.04404
1.03891
1.03362
1.02815
1.02261
1.01404
1.0052
1.00093
0.99714
0.989773
0.981806
0.973645
0.965554
0.957386
0.949454
0.940082
0.931593
0.92292
0.915182
0.906144
0.899186
0.891567
0.88593
0.879433
0.877652
0.874168
0.877176
0.87928
0.879572
0.888651
0.888886
0.895447
0.901519
0.907627
0.914621
0.919631
0.925427
0.931336
0.938294
0.943563
0.949576
0.954212
0.959139
0.964042
0.970132
0.975161
0.980152
0.984935
0.989697
0.994407
0.999831
1.00553
1.01106
1.01663
1.02244
1.02853
1.0349
1.04132
1.04818
1.05516
1.0629
1.0706
1.07795
1.08509
1.09334
1.10197
1.11146
1.12147
1.13258
1.14375
1.15553
1.168
1.18254
1.19773
1.21433
1.23079
1.25
1.27029
1.29277
1.316
1.34004
1.36116
1.37865
1.3961
1.38674
1.36006
1.29296
1.2223
1.13096
1.04509
0.981307
0.934194
0.873669
0.825094
0.784632
0.754641
0.729733
0.721718
0.714018
0.710258
0.709459
0.710353
0.713778
0.717268
0.719407
0.720813
0.721927
0.723528
0.724616
0.7249
0.724677
0.723389
0.720105
0.716751
0.714439
0.711906
0.710566
0.71031
0.70982
0.70866
0.707663
0.705442
0.700173
0.698339
0.700371
0.703369
0.707427
0.711755
0.715533
0.718498
0.720489
0.721206
0.717745
0.710949
0.709284
0.707182
0.708706
0.712151
0.715823
0.719564
0.722962
0.725577
0.727688
0.729318
0.731539
0.733655
0.737477
0.741023
0.744688
0.746851
0.753629
0.753573
0.75404
0.759874
0.763256
0.768126
0.772879
0.779276
0.784778
0.791252
0.798751
0.807606
0.816445
0.825804
0.833866
0.842151
0.849983
0.858072
0.865078
0.872893
0.882991
0.892759
0.896929
0.900884
0.908386
0.917205
0.922378
0.926036
0.931018
0.93724
0.942748
0.947617
0.952436
0.956996
0.961336
0.965656
0.969947
0.973988
0.977809
0.981442
0.984914
0.988232
0.991322
0.994223
0.996995
0.999563
1.00189
1.00401
1.00591
1.00772
1.00934
1.01087
1.01233
1.01366
1.01497
1.01637
1.01769
1.01901
1.02006
1.02101
1.02219
1.02308
1.02398
1.02454
1.02524
1.02561
1.02622
1.02648
1.02712
1.02733
1.02827
1.0287
1.02994
1.03037
1.03178
1.0321
1.03359
1.03353
1.03479
1.03407
1.03492
1.03319
1.0336
1.03073
1.03156
1.02792
1.03073
1.02763
1.03308
1.03259
1.03678
1.03847
1.04165
1.04814
1.05488
1.06119
1.06595
1.06974
1.06784
1.06639
1.06322
1.05975
1.05385
1.04854
1.04199
1.03675
1.03127
1.02786
1.02418
1.02248
1.02025
1.01965
1.01843
1.01838
1.01722
1.01807
1.01689
1.01963
1.01732
1.01858
1.01861
1.01735
1.01965
1.01693
1.0181
1.01726
1.01842
1.01847
1.0197
1.0203
1.02254
1.02426
1.02798
1.03141
1.03691
1.04215
1.04868
1.05395
1.0598
1.0633
1.06677
1.06868
1.07105
1.06975
1.06874
1.06614
1.06238
1.05934
1.05785
1.05802
1.05749
1.06052
1.0584
1.06364
1.06296
1.06738
1.06792
1.07141
1.07262
1.07545
1.07692
1.07923
1.08079
1.08276
1.08434
1.08613
1.08766
1.08926
1.09066
1.09216
1.09345
1.09476
1.09598
1.09727
1.09823
1.09894
1.09982
1.10069
1.10175
1.10261
1.10322
1.1039
1.10457
1.10483
1.10513
1.10535
1.10544
1.10529
1.10528
1.10505
1.10477
1.1044
1.10392
1.10325
1.10263
1.1018
1.10092
1.09995
1.09875
1.09752
1.09626
1.09485
1.09335
1.09153
1.08963
1.08767
1.08551
1.08334
1.08101
1.0785
1.07553
1.07231
1.06898
1.06537
1.06159
1.05742
1.05317
1.04868
1.04399
1.03888
1.03361
1.02814
1.02256
1.01405
1.00533
1.00103
0.997141
0.989795
0.981894
0.973767
0.965706
0.957566
0.949629
0.940321
0.93189
0.923258
0.915538
0.906542
0.899685
0.892059
0.886501
0.879971
0.878289
0.874857
0.877863
0.879907
0.880395
0.889297
0.889681
0.89624
0.902293
0.908356
0.915326
0.920315
0.926145
0.932002
0.938941
0.944169
0.950188
0.954801
0.959777
0.964654
0.970734
0.975728
0.980758
0.985526
0.990343
0.995063
1.00052
1.0062
1.01177
1.01734
1.0232
1.02928
1.03569
1.04211
1.04901
1.056
1.06374
1.07141
1.07883
1.08603
1.09433
1.10297
1.11248
1.12245
1.13349
1.14454
1.15624
1.16853
1.18284
1.19776
1.21416
1.23042
1.24931
1.26929
1.29136
1.31448
1.3378
1.35989
1.37546
1.39045
1.37572
1.34742
1.28702
1.22024
1.12726
1.04931
0.982661
0.938717
0.878566
0.83256
0.792216
0.762694
0.737351
0.729747
0.72137
0.716925
0.715282
0.715458
0.717764
0.720695
0.722466
0.723571
0.724407
0.725675
0.726534
0.726717
0.726434
0.725202
0.72178
0.71816
0.715769
0.713078
0.711623
0.711219
0.710709
0.70961
0.708538
0.706396
0.701284
0.699082
0.700916
0.703849
0.707849
0.712179
0.71598
0.718938
0.720951
0.721732
0.718337
0.711496
0.709794
0.707633
0.709082
0.712482
0.716156
0.719885
0.723304
0.725927
0.728032
0.729663
0.731864
0.733977
0.737772
0.741306
0.745022
0.747124
0.753834
0.753963
0.754331
0.760135
0.76358
0.768442
0.773179
0.779558
0.785088
0.791544
0.799017
0.807848
0.816682
0.826029
0.834089
0.842351
0.850166
0.858243
0.865268
0.873068
0.883045
0.892787
0.897038
0.90105
0.908483
0.917233
0.922407
0.926087
0.931087
0.93729
0.942777
0.94765
0.952461
0.957012
0.961355
0.965662
0.969929
0.973969
0.977796
0.981426
0.984899
0.988223
0.991311
0.994201
0.996959
0.999508
1.00181
1.00392
1.0058
1.00758
1.00916
1.01067
1.0121
1.01341
1.01468
1.01604
1.01734
1.0186
1.01965
1.02059
1.02172
1.02261
1.0235
1.02407
1.02475
1.02512
1.02572
1.02599
1.02665
1.02689
1.02777
1.02819
1.02935
1.02979
1.03112
1.03145
1.03283
1.03283
1.03399
1.0334
1.03411
1.03271
1.03284
1.03072
1.03084
1.02864
1.02978
1.02879
1.03182
1.03222
1.03529
1.03699
1.04067
1.04678
1.05413
1.06067
1.06608
1.07005
1.06838
1.06663
1.06333
1.05978
1.05385
1.04844
1.0419
1.03663
1.03121
1.02784
1.02416
1.0224
1.02021
1.01959
1.01831
1.01819
1.01704
1.01789
1.01676
1.01946
1.01716
1.0184
1.01836
1.01712
1.01942
1.01671
1.01785
1.01699
1.01816
1.01828
1.01958
1.02022
1.02243
1.02421
1.02793
1.03134
1.03681
1.04208
1.04861
1.05395
1.05979
1.06327
1.0668
1.06882
1.07119
1.07031
1.06962
1.06702
1.06347
1.06004
1.05805
1.05739
1.05765
1.05885
1.0605
1.06221
1.0643
1.06646
1.0685
1.07081
1.07273
1.07499
1.07677
1.07886
1.08054
1.08246
1.08404
1.08582
1.08732
1.08895
1.09033
1.09184
1.09311
1.09445
1.09564
1.09689
1.09786
1.09869
1.09959
1.10046
1.10145
1.1023
1.10296
1.10361
1.10426
1.10456
1.10488
1.10508
1.10519
1.10507
1.10506
1.10483
1.10456
1.1042
1.10373
1.10307
1.10245
1.10163
1.10075
1.09978
1.0986
1.09737
1.09611
1.0947
1.0932
1.09139
1.08951
1.08755
1.08539
1.08321
1.08088
1.07837
1.07542
1.07222
1.06889
1.06529
1.06152
1.05737
1.05313
1.04863
1.04395
1.03886
1.03359
1.02811
1.02252
1.01412
1.00556
1.00119
0.997132
0.989839
0.982044
0.973962
0.965943
0.957832
0.949918
0.940659
0.932324
0.923734
0.916016
0.907134
0.900306
0.892791
0.887123
0.880836
0.879095
0.875756
0.87874
0.880658
0.881072
0.889822
0.890181
0.896729
0.902625
0.908699
0.915554
0.920617
0.926432
0.932291
0.939136
0.944403
0.950386
0.955075
0.960089
0.965015
0.971021
0.976059
0.981108
0.985943
0.9908
0.995617
1.00107
1.00676
1.01236
1.01802
1.02391
1.03006
1.0365
1.043
1.04995
1.05702
1.06475
1.07245
1.08001
1.08747
1.09591
1.10471
1.11437
1.12449
1.13563
1.14693
1.15902
1.17171
1.1862
1.20117
1.21761
1.23409
1.25287
1.27227
1.29342
1.31436
1.33548
1.3539
1.36761
1.38246
1.36982
1.3487
1.2921
1.23421
1.15707
1.08068
1.01614
0.964881
0.907021
0.858445
0.815723
0.782662
0.75418
0.7411
0.73023
0.723845
0.72056
0.720077
0.721705
0.724393
0.725673
0.726505
0.726933
0.727951
0.72859
0.728599
0.728061
0.726597
0.723182
0.719651
0.717209
0.714518
0.712888
0.712416
0.711852
0.710681
0.709644
0.707589
0.70225
0.700011
0.701727
0.704609
0.708545
0.712827
0.716599
0.719516
0.721451
0.722196
0.718985
0.712245
0.710494
0.708335
0.709636
0.712939
0.716596
0.720317
0.723731
0.726341
0.728454
0.730065
0.732304
0.734399
0.738198
0.741701
0.745494
0.747553
0.754089
0.754467
0.754819
0.760466
0.76401
0.768885
0.773597
0.779954
0.785523
0.791989
0.799412
0.808212
0.817035
0.826378
0.834412
0.842649
0.850433
0.858499
0.865581
0.873387
0.883186
0.892757
0.897183
0.901328
0.908637
0.917216
0.922471
0.9263
0.931265
0.937356
0.942824
0.9477
0.95251
0.957068
0.961412
0.965726
0.96999
0.974011
0.977825
0.981453
0.984921
0.988236
0.991318
0.994206
0.99696
0.999502
1.0018
1.0039
1.00579
1.00755
1.0091
1.01055
1.01194
1.01323
1.01449
1.01584
1.0171
1.01833
1.01936
1.02029
1.02141
1.02227
1.02315
1.02369
1.02436
1.02471
1.02532
1.02557
1.02624
1.02647
1.02737
1.02772
1.02886
1.02921
1.03051
1.03073
1.03207
1.03194
1.0331
1.03241
1.03324
1.03174
1.03228
1.02999
1.03087
1.02822
1.03032
1.02831
1.03174
1.03119
1.03463
1.03583
1.03854
1.0438
1.05077
1.05787
1.06447
1.0693
1.06768
1.06635
1.0632
1.05973
1.05382
1.0485
1.04194
1.03671
1.03123
1.02783
1.02416
1.02246
1.02024
1.01964
1.01842
1.01837
1.01721
1.01806
1.01689
1.01962
1.01731
1.01857
1.01862
1.01736
1.01966
1.01694
1.01811
1.01727
1.01842
1.01848
1.01971
1.02032
1.02255
1.02428
1.028
1.03144
1.03695
1.04219
1.04872
1.05397
1.05981
1.0633
1.06684
1.06883
1.0712
1.07025
1.06954
1.06717
1.06423
1.06195
1.06108
1.06112
1.0606
1.06278
1.06196
1.06548
1.06523
1.06873
1.06913
1.07223
1.07313
1.07578
1.07698
1.07925
1.08061
1.08259
1.08402
1.0858
1.08723
1.08884
1.09018
1.09167
1.09293
1.09425
1.09543
1.09666
1.09764
1.09847
1.09939
1.10025
1.10124
1.10207
1.10273
1.10339
1.10403
1.10433
1.10466
1.10487
1.10498
1.10488
1.10486
1.10465
1.10438
1.10402
1.10355
1.1029
1.10228
1.10147
1.10059
1.09962
1.09845
1.09723
1.09597
1.09456
1.09306
1.09127
1.08939
1.08743
1.08528
1.0831
1.08077
1.07825
1.0753
1.07212
1.06879
1.0652
1.06143
1.05728
1.05305
1.04856
1.04389
1.03881
1.03356
1.0281
1.02246
1.01412
1.00573
1.00132
0.99714
0.989876
0.982162
0.974124
0.966142
0.958068
0.950143
0.940969
0.932703
0.924161
0.916466
0.907626
0.900928
0.893391
0.887827
0.881467
0.879843
0.876561
0.879533
0.881371
0.882041
0.890576
0.89111
0.897659
0.903533
0.909549
0.916373
0.9214
0.927244
0.933036
0.939858
0.945075
0.95106
0.955717
0.960776
0.965668
0.971665
0.976663
0.98175
0.986567
0.991476
0.996297
1.00178
1.00745
1.01309
1.01874
1.02469
1.03082
1.0373
1.0438
1.05079
1.05784
1.06558
1.07324
1.08086
1.08835
1.09684
1.10561
1.11527
1.12531
1.13637
1.14752
1.15947
1.17195
1.18616
1.20084
1.21699
1.23316
1.25152
1.27051
1.29111
1.31168
1.33199
1.35011
1.36242
1.37476
1.35886
1.33548
1.28332
1.22871
1.15088
1.08155
1.01541
0.967853
0.909966
0.86428
0.821884
0.790005
0.761609
0.749906
0.738297
0.731441
0.727891
0.725927
0.726719
0.728015
0.729289
0.729549
0.729826
0.730337
0.730831
0.730689
0.730149
0.728723
0.725142
0.721284
0.718749
0.715844
0.714147
0.713495
0.712895
0.711784
0.710645
0.708646
0.703502
0.700874
0.702389
0.705138
0.709023
0.713242
0.717132
0.71997
0.722009
0.722805
0.719667
0.712887
0.711098
0.708868
0.710092
0.713338
0.717001
0.720713
0.724155
0.72678
0.728883
0.730499
0.732707
0.734804
0.738565
0.742069
0.745917
0.747902
0.754352
0.754966
0.755191
0.760813
0.764433
0.769298
0.773991
0.780324
0.785932
0.792373
0.799765
0.808535
0.817353
0.826682
0.834712
0.842917
0.850675
0.858724
0.865829
0.873619
0.883269
0.892824
0.897329
0.901538
0.908755
0.917231
0.922486
0.926363
0.931382
0.93747
0.942891
0.947752
0.952544
0.957079
0.961423
0.965715
0.96995
0.973973
0.977792
0.981419
0.984893
0.988214
0.991294
0.994166
0.996901
0.999427
1.0017
1.0038
1.00567
1.00741
1.00893
1.01035
1.0117
1.01296
1.01418
1.01548
1.0167
1.01788
1.0189
1.01982
1.02089
1.02175
1.02262
1.02317
1.02381
1.02416
1.02475
1.02502
1.02568
1.02594
1.02677
1.02713
1.02818
1.02855
1.02973
1.02999
1.03119
1.03117
1.03218
1.03171
1.03236
1.0313
1.03155
1.03005
1.03032
1.02883
1.02979
1.02892
1.03095
1.03099
1.03357
1.03505
1.03792
1.04272
1.04941
1.05672
1.06413
1.06939
1.06817
1.06659
1.0633
1.05978
1.05382
1.0484
1.04186
1.03659
1.03118
1.02781
1.02415
1.02239
1.02021
1.01959
1.01831
1.01819
1.01704
1.01789
1.01677
1.01946
1.01717
1.01841
1.01835
1.01712
1.01942
1.0167
1.01785
1.01698
1.01816
1.01827
1.01958
1.02022
1.02244
1.02422
1.02794
1.03137
1.03684
1.04211
1.04864
1.05396
1.05978
1.06326
1.06685
1.06892
1.07135
1.07073
1.07025
1.0678
1.06501
1.0624
1.06119
1.06086
1.06118
1.06209
1.06329
1.06469
1.06631
1.06808
1.06975
1.07173
1.07336
1.07538
1.07695
1.0789
1.08043
1.08227
1.08375
1.08548
1.0869
1.0885
1.08983
1.09132
1.09256
1.0939
1.09505
1.09626
1.09725
1.09816
1.09908
1.09995
1.10089
1.10171
1.1024
1.10305
1.10367
1.10401
1.10435
1.10455
1.10468
1.1046
1.10459
1.10438
1.10413
1.10376
1.10331
1.10267
1.10206
1.10125
1.10039
1.09941
1.09826
1.09705
1.09578
1.09437
1.09287
1.09109
1.08922
1.08726
1.08512
1.08295
1.08061
1.07809
1.07517
1.07199
1.06867
1.06508
1.06132
1.0572
1.05298
1.0485
1.04383
1.03876
1.03352
1.02806
1.02242
1.01418
1.00596
1.0015
0.997146
0.989929
0.982334
0.974349
0.966418
0.958387
0.950487
0.941359
0.933191
0.924711
0.916993
0.908309
0.901584
0.894231
0.888435
0.882454
0.88065
0.877518
0.880487
0.882169
0.882739
0.891131
0.891626
0.898152
0.903864
0.909894
0.916601
0.921704
0.927527
0.933328
0.940057
0.945316
0.951265
0.955999
0.961088
0.966033
0.971962
0.977008
0.982111
0.986997
0.991942
0.99686
1.00234
1.00804
1.0137
1.01944
1.02542
1.03162
1.03813
1.04472
1.05175
1.05889
1.06661
1.07433
1.08208
1.0898
1.09841
1.10735
1.11713
1.12733
1.13848
1.14985
1.16209
1.17485
1.18915
1.20384
1.21989
1.23604
1.25404
1.27225
1.29178
1.31041
1.32888
1.34476
1.35499
1.36608
1.35281
1.33382
1.28708
1.23802
1.17278
1.1052
1.04332
0.99097
0.935808
0.887791
0.844217
0.809197
0.778264
0.761012
0.747048
0.737939
0.732324
0.729969
0.730447
0.731375
0.732371
0.73222
0.732257
0.732497
0.732828
0.732375
0.731631
0.729911
0.726408
0.722672
0.720083
0.717214
0.71534
0.714614
0.713992
0.712767
0.711708
0.709777
0.704369
0.701791
0.703161
0.705866
0.709796
0.713848
0.717738
0.720529
0.722525
0.723271
0.720339
0.713666
0.711805
0.709602
0.710671
0.713797
0.717465
0.721181
0.724614
0.727249
0.729346
0.730955
0.733198
0.735294
0.739049
0.742539
0.746434
0.748428
0.754653
0.755548
0.755773
0.761177
0.764951
0.769816
0.774488
0.780794
0.786449
0.792901
0.800235
0.808971
0.817774
0.827109
0.835104
0.843279
0.851
0.859034
0.866191
0.87397
0.883434
0.892816
0.897524
0.90183
0.908909
0.917247
0.922572
0.926557
0.931526
0.937507
0.942929
0.947803
0.952594
0.957136
0.961475
0.965772
0.970001
0.974
0.977806
0.981424
0.984887
0.988194
0.991265
0.994138
0.996873
0.999396
1.00167
1.00376
1.00564
1.00736
1.00884
1.01021
1.01152
1.01276
1.01396
1.01522
1.01641
1.01756
1.01856
1.01946
1.02052
1.02135
1.0222
1.02273
1.02336
1.0237
1.02429
1.02455
1.02522
1.02546
1.02629
1.02659
1.02761
1.02789
1.02905
1.02921
1.03039
1.03026
1.03133
1.03077
1.03162
1.03045
1.03114
1.02949
1.03038
1.02858
1.03013
1.02871
1.03101
1.0305
1.0332
1.03444
1.03695
1.04102
1.04701
1.05455
1.06242
1.06865
1.06747
1.06632
1.06318
1.0597
1.05379
1.04845
1.0419
1.03666
1.0312
1.0278
1.02413
1.02244
1.02022
1.01963
1.01841
1.01836
1.01721
1.01806
1.01688
1.01962
1.0173
1.01857
1.01863
1.01737
1.01967
1.01695
1.01812
1.01728
1.01843
1.01849
1.01972
1.02033
1.02257
1.02431
1.02803
1.03148
1.037
1.04223
1.04875
1.05399
1.05982
1.0633
1.06689
1.06894
1.07133
1.07065
1.0701
1.06794
1.06581
1.06418
1.06366
1.06366
1.06344
1.06497
1.06478
1.06726
1.06734
1.07006
1.07047
1.07311
1.07384
1.07625
1.07723
1.07939
1.08055
1.08248
1.08375
1.0855
1.0868
1.0884
1.08967
1.09114
1.09234
1.09367
1.0948
1.09599
1.09698
1.09789
1.09882
1.09969
1.10062
1.10143
1.10212
1.10276
1.10338
1.10373
1.10407
1.10428
1.10442
1.10435
1.10434
1.10414
1.10389
1.10353
1.10308
1.10246
1.10184
1.10104
1.10018
1.09921
1.09807
1.09687
1.0956
1.0942
1.09269
1.09092
1.08905
1.0871
1.08496
1.08278
1.08044
1.07792
1.07499
1.07184
1.06853
1.06495
1.0612
1.05708
1.05287
1.0484
1.04375
1.03871
1.03349
1.02804
1.02235
1.01418
1.00616
1.00166
0.997164
0.989997
0.982484
0.97455
0.966659
0.95867
0.950759
0.941742
0.933635
0.925236
0.917499
0.908991
0.902193
0.895064
0.889069
0.883449
0.881175
0.878449
0.881264
0.882965
0.883722
0.891922
0.892604
0.899114
0.904812
0.910782
0.917457
0.922523
0.92837
0.934104
0.940811
0.946022
0.951974
0.956677
0.961809
0.966719
0.972639
0.977648
0.982787
0.987657
0.99265
0.997567
1.00308
1.00875
1.01445
1.02018
1.0262
1.0324
1.03893
1.04552
1.05257
1.0597
1.06742
1.07511
1.08289
1.09063
1.09925
1.10815
1.1179
1.128
1.13903
1.15023
1.16229
1.1748
1.1888
1.20315
1.21887
1.23464
1.25217
1.2699
1.28883
1.30691
1.32458
1.33949
1.34883
1.35831
1.34243
1.32291
1.27689
1.23104
1.16512
1.10385
1.04097
0.992607
0.9372
0.892206
0.849039
0.815665
0.785074
0.769615
0.755072
0.746145
0.740516
0.736909
0.735742
0.735985
0.736102
0.735854
0.735327
0.735289
0.735252
0.734847
0.733982
0.732378
0.728595
0.724553
0.721833
0.71877
0.716755
0.715918
0.715153
0.714054
0.71284
0.710976
0.705813
0.702812
0.703839
0.706688
0.710183
0.714566
0.718181
0.721164
0.723061
0.723984
0.721072
0.714357
0.712455
0.710192
0.711155
0.714343
0.717808
0.721708
0.724983
0.727789
0.729765
0.73147
0.733611
0.735772
0.739426
0.742976
0.746877
0.748854
0.75496
0.756096
0.756228
0.761581
0.765454
0.770295
0.774963
0.78123
0.786939
0.79336
0.800669
0.809365
0.818174
0.827493
0.835482
0.84361
0.8513
0.859316
0.866503
0.874263
0.883544
0.89292
0.897711
0.902095
0.909061
0.917263
0.922609
0.926654
0.931665
0.937643
0.94302
0.947858
0.95262
0.957143
0.961487
0.965757
0.96995
0.973944
0.977755
0.981377
0.984846
0.988161
0.991231
0.994089
0.996805
0.999307
1.00156
1.00364
1.00551
1.00723
1.00869
1.01004
1.01131
1.01252
1.01366
1.01486
1.01602
1.01712
1.01811
1.019
1.02001
1.02085
1.02169
1.02223
1.02283
1.02317
1.02373
1.02401
1.02465
1.02491
1.02569
1.026
1.02695
1.02726
1.02831
1.02852
1.02957
1.02957
1.0305
1.0302
1.03088
1.03017
1.03061
1.02964
1.03009
1.02911
1.02995
1.0293
1.03078
1.03078
1.03293
1.03433
1.03712
1.0408
1.04607
1.05347
1.06181
1.06845
1.06781
1.06659
1.06328
1.05978
1.05379
1.04835
1.04181
1.03655
1.03115
1.02779
1.02414
1.02238
1.02021
1.01959
1.01831
1.0182
1.01705
1.01789
1.01677
1.01946
1.01717
1.01841
1.01834
1.01711
1.01941
1.01668
1.01784
1.01697
1.01815
1.01827
1.01958
1.02022
1.02244
1.02423
1.02796
1.03139
1.03688
1.04215
1.04867
1.05397
1.05978
1.06325
1.06688
1.069
1.07148
1.07099
1.07066
1.06848
1.06635
1.06449
1.06381
1.06366
1.06402
1.06476
1.06571
1.0669
1.06818
1.06967
1.07105
1.07275
1.07413
1.07592
1.07729
1.07908
1.08044
1.08218
1.08353
1.08518
1.0865
1.08805
1.08932
1.09076
1.09195
1.09328
1.09438
1.09557
1.09656
1.09752
1.09844
1.09932
1.10021
1.10102
1.10172
1.10236
1.10296
1.10333
1.10369
1.1039
1.10405
1.104
1.104
1.1038
1.10357
1.10321
1.10278
1.10216
1.10156
1.10076
1.09991
1.09895
1.09782
1.09662
1.09535
1.09394
1.09244
1.09068
1.08883
1.08688
1.08476
1.08258
1.08024
1.07771
1.07482
1.07167
1.06837
1.06481
1.06106
1.05696
1.05277
1.04831
1.04366
1.03864
1.03344
1.028
1.02231
1.01425
1.0064
1.00186
0.997191
0.990069
0.982673
0.974796
0.966959
0.959013
0.951122
0.942193
0.934099
0.92579
0.918029
0.909665
0.902855
0.895846
0.889773
0.884451
0.88194
0.879525
0.882141
0.88375
0.88437
0.892435
0.893126
0.899613
0.905159
0.911143
0.917701
0.922841
0.928662
0.93441
0.941025
0.946276
0.952188
0.956968
0.962121
0.967089
0.972947
0.978006
0.983157
0.988097
0.993124
0.998137
1.00365
1.00936
1.01508
1.0209
1.02695
1.03322
1.03978
1.04645
1.05354
1.06075
1.06849
1.07624
1.08414
1.09207
1.10081
1.10986
1.11972
1.12996
1.14108
1.15245
1.1647
1.17739
1.19139
1.20569
1.22119
1.23675
1.25374
1.27061
1.28841
1.30482
1.32094
1.33394
1.34156
1.35044
1.33641
1.31959
1.28018
1.23728
1.18167
1.12194
1.06411
1.01275
0.960308
0.913444
0.869957
0.833926
0.801491
0.780957
0.764187
0.752571
0.744691
0.740441
0.739068