/*--------------------------------*- C++ -*----------------------------------*\
| =========                 |                                                 |
| \\      /  F ield         | OpenFOAM: The Open Source CFD Toolbox           |
|  \\    /   O peration     | Version:  v2006                                 |
|   \\  /    A nd           | Website:  www.openfoam.com                      |
|    \\/     M anipulation  |                                                 |
\*---------------------------------------------------------------------------*/
FoamFile
{
    version     2.0;
    format      ascii;
    class       volScalarField;
    location    "185";
    object      pPrime2Mean;
}
// * * * * * * * * * * * * * * * * * * * * * * * * * * * * * * * * * * * * * //

dimensions      [2 -2 -4 0 0 0 0];


internalField   nonuniform List<scalar> 
93840
(
0.000416532
0.000439294
0.000512587
0.000478803
0.000562308
0.000423205
0.000532056
0.000421015
0.000494135
0.000386336
0.000475984
0.000354642
0.000431298
0.000326801
0.000380816
0.00029458
0.000327877
0.000270723
0.000313543
0.000335825
0.000536888
0.000832953
0.00142497
0.00210894
0.00290755
0.00359497
0.00445559
0.00524806
0.006031
0.00655315
0.00675802
0.00620815
0.00529268
0.00380837
0.00325757
0.00282243
0.00257426
0.00233428
0.00218524
0.00202208
0.00192212
0.00180087
0.00172734
0.00163315
0.00157794
0.00150586
0.00146463
0.0014062
0.00137141
0.00132777
0.00130088
0.00126168
0.00124215
0.00122278
0.00119761
0.00116358
0.00113942
0.00112274
0.00111457
0.00110259
0.00108101
0.00107195
0.00106041
0.0010466
0.00103043
0.0010211
0.00100428
0.000990522
0.000973969
0.000963122
0.000943273
0.00093205
0.000912139
0.000895544
0.00087737
0.000860871
0.000841611
0.000824266
0.000802971
0.000785676
0.000769291
0.000753941
0.000736473
0.000717335
0.000697326
0.000679376
0.000658921
0.000640708
0.000622786
0.000606857
0.000587992
0.000571226
0.000557246
0.000546193
0.000537671
0.000531576
0.000526393
0.000524532
0.000523539
0.000524956
0.000527285
0.000533489
0.000540167
0.000553788
0.000566452
0.000573648
0.000582906
0.000599625
0.000616998
0.00063919
0.000661281
0.000686875
0.000712147
0.00074619
0.000779215
0.000815174
0.000852099
0.000895569
0.000939029
0.000985302
0.00103402
0.00106884
0.00108681
0.00109099
0.0010747
0.0010418
0.00105952
0.000981836
0.000976939
0.00094042
0.000894869
0.000865186
0.0008243
0.000804833
0.000778525
0.000755116
0.000725808
0.000709089
0.000688611
0.000677507
0.000665265
0.000654361
0.000637052
0.000627528
0.000617897
0.000611639
0.000604516
0.000600948
0.000591711
0.000585073
0.000577196
0.000574142
0.000566764
0.000563582
0.000555395
0.000553618
0.000545418
0.000543973
0.000532968
0.000530472
0.000525365
0.000531851
0.000525241
0.0005279
0.000518972
0.000519988
0.000505314
0.000506763
0.000497909
0.00050395
0.000483062
0.000477362
0.000449829
0.000452691
0.000414351
0.000393888
0.000340756
0.000308488
0.000214096
0.000183528
0.000127807
0.000144748
0.000312295
0.000630579
0.00116566
0.00162731
0.00213431
0.00217928
0.00187473
0.00143078
0.00162541
0.00196489
0.00221475
0.00239323
0.00303378
0.00319616
0.00319496
0.00322952
0.00326502
0.00327913
0.00320676
0.00304119
0.00283818
0.00265081
0.00249172
0.00234178
0.00218981
0.00203553
0.00189973
0.00178482
0.001767
0.00183718
0.00188437
0.00197162
0.0020512
0.00208569
0.00211354
0.00211118
0.00211474
0.00213496
0.0023268
0.00252734
0.00265842
0.00277131
0.00283105
0.00282826
0.0027769
0.00269404
0.00255344
0.00242198
0.00230461
0.00233285
0.00241885
0.00258257
0.00269543
0.00278732
0.00284148
0.00287442
0.00286789
0.00286621
0.00285009
0.00282921
0.00277286
0.00269293
0.00258024
0.00245915
0.00233913
0.00227908
0.00217891
0.00209723
0.00211849
0.00206054
0.00202067
0.00196699
0.00195126
0.00190433
0.00188374
0.00184175
0.00172487
0.00151452
0.00113927
0.000865496
0.000786518
0.000753943
0.000729545
0.000707653
0.000691485
0.000669413
0.000621292
0.000573173
0.000561036
0.000549914
0.000507258
0.000464492
0.00044752
0.000438502
0.000421779
0.000402611
0.000390313
0.000388378
0.00039382
0.00039993
0.00040578
0.000425773
0.00045348
0.00048361
0.000518031
0.000563316
0.000614313
0.000670851
0.000739378
0.000825575
0.000920829
0.00103256
0.0011676
0.001324
0.00150363
0.0017059
0.00193919
0.0021731
0.00239338
0.00261699
0.00283532
0.00303179
0.00320647
0.00339167
0.0035405
0.00368985
0.00385958
0.00403854
0.00424744
0.00444205
0.00462966
0.00480367
0.00498824
0.00512098
0.00521692
0.00522034
0.00518677
0.00507046
0.00493807
0.00475223
0.00457282
0.00439264
0.00424796
0.00419992
0.00423196
0.00446125
0.004874
0.00561153
0.00661615
0.00799524
0.00929164
0.010528
0.0112182
0.011021
0.00838998
0.00749057
0.00708565
0.00629888
0.00560627
0.00475404
0.00385082
0.00302549
0.00216119
0.0014595
0.00083795
0.000539015
0.000332961
0.000312623
0.000269654
0.000325169
0.000292425
0.000378869
0.000326637
0.000432166
0.000355216
0.000477364
0.000386884
0.000495151
0.000420674
0.000531404
0.000425448
0.000561917
0.000479865
0.000511235
0.000440508
0.000417381
0.000417344
0.000440394
0.000511215
0.000479749
0.000561744
0.000425295
0.000531147
0.000420448
0.000494883
0.000386618
0.000477016
0.000354979
0.000431944
0.000326576
0.00037878
0.000292608
0.000325601
0.000270303
0.000313179
0.000331839
0.00052505
0.000792348
0.00133883
0.00191776
0.0026019
0.0031901
0.00385853
0.00447247
0.00492795
0.00514091
0.00472751
0.00441933
0.00395649
0.00342815
0.00310913
0.00275656
0.00255352
0.00232021
0.00218133
0.00201744
0.00192009
0.00179909
0.00172533
0.00163263
0.00157612
0.00150415
0.00146121
0.00140376
0.00136916
0.00132432
0.00129749
0.00125978
0.0012386
0.00121459
0.00119137
0.001162
0.00113943
0.00112151
0.0011096
0.00109711
0.00107785
0.00106769
0.00105479
0.0010424
0.00102718
0.00101718
0.00100099
0.000988113
0.000971215
0.000960365
0.000940837
0.000929505
0.000909991
0.000893902
0.000875635
0.000859236
0.00084014
0.00082293
0.000802198
0.000785148
0.000768625
0.000753229
0.000735763
0.000716891
0.00069697
0.000678879
0.000658514
0.000640225
0.000622125
0.00060611
0.000587372
0.000570768
0.00055682
0.000545826
0.000537347
0.000531312
0.00052625
0.000524496
0.000523534
0.00052506
0.000527512
0.00053372
0.000540408
0.000554309
0.000567133
0.000574048
0.000583162
0.000599844
0.000617196
0.000639342
0.000661399
0.000686913
0.000712153
0.000746097
0.000778999
0.000814793
0.0008517
0.000894841
0.000938017
0.000984092
0.00103249
0.00106686
0.00108496
0.00108865
0.0010724
0.00103971
0.001057
0.000980245
0.000974468
0.00093769
0.000892357
0.000862711
0.000822102
0.00080255
0.000776169
0.000752879
0.000723836
0.00070714
0.000686782
0.00067559
0.000663199
0.000652254
0.000635168
0.000625651
0.000615939
0.000609575
0.00060228
0.000598444
0.000589192
0.00058258
0.000574593
0.000571302
0.000563761
0.000560439
0.000552122
0.000550082
0.000541627
0.000539872
0.000529003
0.000526543
0.000520652
0.00052577
0.000518389
0.000520171
0.000510286
0.00051042
0.000495697
0.000496015
0.000484327
0.000486124
0.000462522
0.000453148
0.000422334
0.000416181
0.000377714
0.000348786
0.000287007
0.000236149
0.000191947
0.000164304
0.000128931
0.000137773
0.000241928
0.000343087
0.00062969
0.000947589
0.00129801
0.00159116
0.00155007
0.00130124
0.00148327
0.00181731
0.00209392
0.00227702
0.00292717
0.00312144
0.00313133
0.00317677
0.00322086
0.00324045
0.00317529
0.00301507
0.00281724
0.00263359
0.0024791
0.00233188
0.00218141
0.00202784
0.00189303
0.00177976
0.00176346
0.00183363
0.00188118
0.00196774
0.00204844
0.00208265
0.00210973
0.00210642
0.00210976
0.00213016
0.00232577
0.00252521
0.00265526
0.0027681
0.00282841
0.0028256
0.00277442
0.00269156
0.00255105
0.00241908
0.00230114
0.00232904
0.002417
0.00258043
0.00269403
0.00278591
0.00284013
0.00287289
0.00286614
0.00286449
0.0028482
0.00282732
0.00277063
0.00269085
0.00257838
0.00245761
0.0023371
0.00227759
0.0021778
0.00209522
0.00211658
0.00205905
0.00201891
0.00196513
0.00194954
0.00190262
0.00188187
0.00183975
0.00172339
0.00151371
0.00113795
0.000864046
0.000785374
0.000752896
0.000728368
0.00070656
0.00068999
0.000667519
0.000620871
0.000573754
0.000560411
0.000547908
0.000506095
0.000464576
0.00044767
0.000437758
0.000420545
0.00040159
0.000389346
0.000387532
0.000393155
0.000399555
0.000405553
0.000425579
0.000453203
0.000483078
0.000517783
0.000563091
0.00061422
0.000671053
0.000739504
0.000825686
0.000921061
0.00103286
0.00116698
0.00132191
0.00150313
0.00170616
0.00193959
0.0021731
0.00239406
0.00261883
0.00283867
0.00303748
0.00321259
0.00340177
0.00355064
0.00370016
0.00386972
0.00405236
0.00425904
0.0044543
0.00464506
0.00482011
0.00499909
0.00512709
0.0052252
0.00523729
0.00521219
0.00510223
0.00497301
0.00479104
0.00462172
0.00445244
0.00433185
0.00429103
0.00435253
0.00460375
0.00504845
0.00583246
0.00682935
0.0082593
0.00953624
0.0109197
0.0114582
0.0111482
0.0102692
0.00934585
0.00840837
0.00743013
0.00636703
0.00531965
0.00418969
0.00329304
0.00232929
0.00152283
0.00086095
0.000540598
0.000334458
0.000311502
0.000269903
0.000327144
0.000294328
0.000380686
0.000326788
0.000431306
0.000354557
0.000475885
0.000386227
0.000494026
0.000421003
0.000531978
0.000423117
0.000562243
0.000478755
0.000512581
0.000439296
0.000416482
0.000416525
0.00043928
0.000512598
0.000478827
0.00056232
0.00042323
0.000532056
0.000420983
0.000494047
0.000386284
0.000475901
0.000354632
0.000431237
0.000326805
0.000380787
0.000294839
0.000328351
0.000271446
0.000314551
0.00033402
0.000521421
0.000778009
0.00127785
0.00180968
0.00241469
0.00291287
0.00353843
0.00406442
0.00462586
0.00469527
0.00482365
0.00415842
0.00382803
0.00339619
0.00301627
0.00272846
0.00249765
0.00229644
0.00214947
0.00200071
0.00190059
0.00178595
0.00171353
0.0016235
0.00156858
0.00149801
0.00145541
0.00139901
0.00136488
0.0013209
0.00129398
0.00125731
0.00123646
0.00121249
0.00118906
0.00116093
0.00113879
0.00112142
0.00110931
0.0010963
0.00107758
0.00106754
0.00105395
0.00104232
0.00102725
0.00101688
0.00100075
0.000988268
0.000971325
0.000960549
0.000941304
0.000930062
0.000910663
0.000894792
0.000876771
0.00086077
0.000841913
0.000824767
0.000804285
0.000787643
0.000771658
0.000756596
0.000739457
0.000720823
0.000700954
0.000682685
0.000661726
0.000642843
0.000624174
0.000607549
0.000588667
0.000571707
0.000557608
0.000546514
0.000537962
0.000531933
0.000526752
0.000524835
0.000523856
0.000525365
0.000527747
0.000533844
0.000540529
0.000554538
0.000567395
0.0005742
0.000583096
0.000600116
0.000617464
0.000639533
0.000661517
0.000686963
0.000712101
0.000745925
0.000778649
0.000814445
0.000851066
0.000894253
0.000937293
0.000983158
0.00103205
0.00106626
0.00108345
0.0010873
0.00107117
0.00103857
0.00105631
0.000979277
0.000974625
0.000938642
0.000893742
0.000864247
0.000823697
0.000804083
0.000777681
0.000754406
0.000725302
0.000708548
0.000688038
0.000676738
0.000664141
0.000653175
0.000636036
0.000626437
0.000616542
0.000610093
0.000602592
0.000598639
0.000589254
0.000582585
0.000574399
0.000570935
0.000563139
0.00055963
0.000551054
0.000548778
0.000540036
0.000538049
0.000527028
0.000524454
0.000518107
0.000522653
0.000514787
0.000516187
0.000505775
0.000505539
0.000490391
0.000490235
0.000477509
0.000479078
0.000456168
0.000449424
0.000419406
0.00041482
0.00037341
0.000352766
0.000295655
0.000267262
0.000188672
0.000166992
0.000128946
0.00013944
0.000225375
0.000418843
0.000595015
0.000946128
0.00124621
0.00147192
0.00146148
0.0012547
0.0014308
0.00173695
0.00201454
0.00223607
0.00285905
0.003042
0.00307859
0.00313282
0.00318385
0.00321801
0.00317126
0.00301279
0.00280904
0.00262592
0.00247073
0.0023274
0.00217922
0.00202729
0.00189334
0.00177704
0.00175709
0.00182836
0.00187441
0.00196299
0.00204295
0.00207952
0.0021086
0.00210735
0.00211021
0.00212802
0.0023142
0.00251932
0.00265425
0.0027684
0.0028288
0.00282642
0.00277478
0.00269227
0.00255206
0.00242123
0.00230197
0.00233048
0.00241466
0.00257911
0.00269196
0.00278495
0.00283913
0.00287227
0.00286547
0.00286348
0.00284746
0.00282662
0.00277076
0.0026908
0.00257843
0.00245716
0.00233676
0.00227719
0.00217856
0.00209435
0.00211589
0.00205915
0.0020182
0.00196429
0.00194855
0.00190188
0.00188113
0.00183951
0.00172421
0.00151588
0.0011395
0.000862773
0.000783556
0.000751609
0.000727377
0.000705388
0.000688348
0.000665886
0.00061997
0.00057348
0.000560272
0.00054749
0.00050687
0.000466334
0.000448992
0.000439192
0.000422904
0.000404342
0.000392417
0.000390537
0.000395881
0.000402577
0.000409183
0.000429262
0.000457398
0.000487676
0.00052208
0.000567494
0.000618398
0.00067529
0.000744346
0.000832176
0.000928246
0.00104155
0.00117892
0.00133633
0.00151897
0.00172528
0.00196581
0.00220574
0.00243126
0.00266028
0.00288498
0.00308412
0.00326392
0.00345368
0.00360795
0.00376159
0.00393427
0.00411806
0.00433133
0.00452973
0.00472076
0.0048946
0.00507415
0.00520198
0.00530115
0.00531713
0.00529722
0.00519692
0.00507512
0.00490633
0.00473626
0.00457999
0.00444958
0.00442902
0.00448195
0.0047606
0.00521021
0.00604213
0.00712572
0.00865623
0.0100199
0.0115857
0.0121326
0.0120121
0.0114264
0.0102627
0.00943309
0.00823802
0.00710928
0.00591686
0.00468757
0.00358029
0.00245948
0.00159043
0.000882793
0.000553866
0.000334649
0.000311885
0.000269296
0.000324959
0.000292331
0.000379
0.000326678
0.000432384
0.000355364
0.000477548
0.000387026
0.000495225
0.000420752
0.000531614
0.000425619
0.000562072
0.000479963
0.000511277
0.000440645
0.000417472
0.000417311
0.000440257
0.000511175
0.00047965
0.000561622
0.000425168
0.00053095
0.000420296
0.000494903
0.000386542
0.000476884
0.000354812
0.000431775
0.00032657
0.000378702
0.000292698
0.000326121
0.000270834
0.000314374
0.000331382
0.000514904
0.000750523
0.0012198
0.00168687
0.00225543
0.00267969
0.00316233
0.00356508
0.0038629
0.00393741
0.00378963
0.00360183
0.00336758
0.00303773
0.00285123
0.00258145
0.00243931
0.0022353
0.00212609
0.00197248
0.00188886
0.00177211
0.00170645
0.00161543
0.00156326
0.00149151
0.00145095
0.00139385
0.00136136
0.00131591
0.00129043
0.00125373
0.0012328
0.00120633
0.00118494
0.00115843
0.0011378
0.00111913
0.00110561
0.00109184
0.00107484
0.00106391
0.00105015
0.00103924
0.00102499
0.00101412
0.000998684
0.000986838
0.000969783
0.000959084
0.000940111
0.000928754
0.000909798
0.000894504
0.000876705
0.00086097
0.000842374
0.000825469
0.000805567
0.000789363
0.000773428
0.000758426
0.000741136
0.000722498
0.000702486
0.000683824
0.000662772
0.000643602
0.000624605
0.000607814
0.000588541
0.000571744
0.000557533
0.000546342
0.00053779
0.000531852
0.000526871
0.00052511
0.000524126
0.00052572
0.000528173
0.000534187
0.000540831
0.000555241
0.000568158
0.000574552
0.000583655
0.000600313
0.000617639
0.000639717
0.000661733
0.000687102
0.000712295
0.000746059
0.000778736
0.00081419
0.000851087
0.000893586
0.000936382
0.000982192
0.00103028
0.00106399
0.00108229
0.001085
0.00106866
0.00103635
0.00105321
0.000977557
0.000970428
0.000933504
0.000888405
0.000858868
0.000818681
0.000799049
0.000772675
0.000749553
0.000720898
0.000704263
0.000684091
0.000672817
0.000660283
0.000649288
0.000632497
0.000622992
0.000613199
0.000606708
0.00059921
0.000595053
0.000585766
0.000579172
0.000571022
0.000567415
0.000559622
0.00055606
0.000547506
0.000545071
0.000536241
0.000534049
0.000523214
0.000520658
0.00051379
0.000517281
0.000508898
0.000509569
0.00049856
0.000497537
0.000482286
0.000480903
0.000466355
0.000464647
0.000440081
0.000429669
0.000397968
0.00038658
0.000346663
0.000319759
0.00026612
0.000228385
0.000167276
0.000145169
0.000108814
0.00011993
0.000186797
0.000312721
0.000435265
0.000657745
0.000928411
0.00117213
0.00125467
0.00115523
0.00133111
0.00162608
0.00191254
0.00210478
0.0027193
0.00294907
0.0030234
0.00308825
0.00315368
0.00318716
0.00315014
0.00299686
0.00279517
0.00261262
0.00246143
0.00232045
0.00217321
0.00201809
0.0018839
0.00177284
0.00175618
0.00182722
0.00187519
0.00196142
0.00204413
0.0020787
0.00210463
0.00209956
0.00210186
0.00212136
0.00232249
0.00252227
0.00265219
0.00276563
0.00282715
0.00282407
0.00277289
0.00268949
0.00254902
0.00241513
0.00229472
0.00232136
0.00241346
0.00257754
0.00269319
0.00278567
0.00284024
0.00287274
0.00286528
0.00286356
0.00284711
0.00282664
0.00276953
0.00269013
0.00257779
0.00245748
0.00233538
0.00227718
0.00217779
0.00209273
0.00211459
0.00205788
0.00201693
0.00196262
0.00194725
0.00190033
0.00187945
0.00183753
0.00172467
0.00151766
0.00113885
0.00086059
0.000781805
0.000750127
0.000726095
0.000704438
0.00068731
0.000664543
0.000619659
0.000574038
0.000559584
0.000546155
0.000505831
0.000466167
0.000450266
0.000440356
0.000423397
0.000405314
0.000393783
0.000392359
0.000398169
0.000404866
0.000411485
0.000431899
0.000459787
0.000490305
0.000525333
0.000570891
0.000622295
0.000679175
0.00074888
0.000837176
0.000934187
0.00104868
0.00118846
0.00134873
0.00153299
0.00174237
0.00198569
0.00222983
0.00246005
0.00269304
0.00291934
0.00312039
0.00330011
0.00349331
0.00365065
0.00380911
0.00398624
0.00417536
0.00438947
0.00459151
0.0047907
0.00496788
0.00514957
0.00527962
0.00538163
0.00540177
0.00539189
0.005297
0.00519005
0.00502763
0.00488264
0.00473319
0.00463792
0.00462125
0.00472014
0.00499074
0.00548528
0.00627455
0.00734397
0.00872977
0.0100558
0.011471
0.0120504
0.0122162
0.0116474
0.0107887
0.00993479
0.00884738
0.00761882
0.00630921
0.00491642
0.00375007
0.00256347
0.00161574
0.00089042
0.000548863
0.000335051
0.000310857
0.000269172
0.000326564
0.000294066
0.000380628
0.000326802
0.000431362
0.000354577
0.000476012
0.000386305
0.000494134
0.000421055
0.000531974
0.00042305
0.000562204
0.000478718
0.000512572
0.000439289
0.000416431
0.000416556
0.000439288
0.000512624
0.000478862
0.00056234
0.000423274
0.000532079
0.00042097
0.000493941
0.000386222
0.000475819
0.00035465
0.000431209
0.0003268
0.000380901
0.00029518
0.000329008
0.000272323
0.000315755
0.000333176
0.000508811
0.000727052
0.00115462
0.00156952
0.00206602
0.00242488
0.00288576
0.00325303
0.00365696
0.00364166
0.00374288
0.00336116
0.00327156
0.00295095
0.00277205
0.00253646
0.00238329
0.00220547
0.00209069
0.00195221
0.00186751
0.00175767
0.00169359
0.00160568
0.00155566
0.00148542
0.00144562
0.00138949
0.00135729
0.0013127
0.00128702
0.0012508
0.00123
0.00120352
0.0011818
0.00115658
0.00113589
0.00111808
0.0011041
0.00109046
0.00107379
0.00106339
0.00104907
0.00103891
0.00102485
0.001014
0.000998486
0.000987059
0.00096998
0.000959441
0.00094068
0.000929489
0.000910713
0.000895814
0.000878162
0.000862875
0.000844552
0.000827723
0.000808141
0.000792406
0.000777076
0.000762448
0.000745591
0.000727359
0.000707526
0.00068885
0.000667195
0.000647457
0.000627638
0.000609893
0.000590556
0.000573222
0.000558835
0.000547554
0.000538802
0.000532766
0.00052763
0.000525644
0.000524625
0.000526228
0.000528625
0.000534506
0.00054117
0.000555545
0.000568386
0.000574706
0.000583357
0.000600732
0.000617932
0.000639809
0.000661632
0.000686849
0.000711815
0.000745388
0.000777651
0.000813241
0.000849455
0.00089235
0.000934791
0.000980326
0.00102943
0.00106309
0.00107926
0.00108292
0.00106671
0.00103471
0.00105251
0.000976263
0.000971696
0.000936287
0.000892045
0.000862725
0.000822554
0.00080275
0.000776252
0.000753104
0.000724233
0.000707438
0.000686912
0.000675402
0.000662452
0.000651405
0.00063445
0.000624769
0.000614623
0.000607969
0.000600115
0.000595781
0.000586273
0.00057958
0.000571136
0.000567315
0.000559182
0.000555414
0.000546555
0.000543888
0.000534753
0.000532357
0.000521351
0.000518709
0.000511394
0.000514417
0.000505565
0.000505963
0.000494453
0.000493212
0.000477512
0.000475951
0.000460563
0.000459149
0.000434882
0.00042691
0.000395269
0.000386228
0.00034368
0.000322299
0.000266437
0.00023568
0.00016989
0.000146599
0.000115703
0.000115763
0.000165069
0.00031024
0.000394917
0.000645276
0.000880168
0.00109157
0.00118394
0.00111142
0.00128117
0.00155159
0.00183777
0.00207857
0.00270355
0.00292519
0.00298672
0.00306087
0.00311433
0.00315373
0.00311442
0.00297478
0.00278714
0.00260342
0.00245321
0.00231449
0.00217384
0.00202081
0.00188886
0.00176998
0.00174884
0.00181894
0.00186446
0.0019539
0.00203492
0.00207361
0.00210393
0.00210287
0.00210511
0.00211904
0.00230019
0.0025106
0.0026503
0.00276622
0.00282769
0.00282567
0.00277349
0.00269117
0.00255144
0.00242074
0.00229824
0.00232655
0.0024097
0.00257549
0.00268886
0.00278357
0.00283798
0.00287133
0.002864
0.00286157
0.00284559
0.00282483
0.00276945
0.00268945
0.00257754
0.00245594
0.00233488
0.00227583
0.00217911
0.0020914
0.00211324
0.00205825
0.00201587
0.00196152
0.00194568
0.00189947
0.00187845
0.00183781
0.00172622
0.00152188
0.00114066
0.000858083
0.00077893
0.00074806
0.000724203
0.00070206
0.000684172
0.000661343
0.000617694
0.000572937
0.000559115
0.000545486
0.000507376
0.000469665
0.000452305
0.000442083
0.000426154
0.000408094
0.000396669
0.00039547
0.00040156
0.000409162
0.000416572
0.000437348
0.000466213
0.000497096
0.000531935
0.00057806
0.000629547
0.000686486
0.000756896
0.000846389
0.000944427
0.00106051
0.00120323
0.00136606
0.00155356
0.00176786
0.00201932
0.0022712
0.00250825
0.00274757
0.00298141
0.00318676
0.00337185
0.00356953
0.00373251
0.00389822
0.00407851
0.00427224
0.00448749
0.00469295
0.00489579
0.00507499
0.00525838
0.00538959
0.0054933
0.00551965
0.00551799
0.00543759
0.00534586
0.00520218
0.00506921
0.00493668
0.00485217
0.00484804
0.00495322
0.0052316
0.0057179
0.00649291
0.00753955
0.00885579
0.0101087
0.0114669
0.0121193
0.0124345
0.0121292
0.0113988
0.0106968
0.00945416
0.00826418
0.00688687
0.00540209
0.00403951
0.00267674
0.00166174
0.000902631
0.000558335
0.00033364
0.000309817
0.000268425
0.000324439
0.000292131
0.00037904
0.000326702
0.000432578
0.000355515
0.0004777
0.000387142
0.000495308
0.000420912
0.000531807
0.000425793
0.000562228
0.00048008
0.000511306
0.000440784
0.000417539
0.000417261
0.00044012
0.000511108
0.000479558
0.000561479
0.000425013
0.000530771
0.000420129
0.000494815
0.000386396
0.000476712
0.000354676
0.00043161
0.000326566
0.000378698
0.000292947
0.000326641
0.000271569
0.000315529
0.000330467
0.000503334
0.00070482
0.00110137
0.00145827
0.00192465
0.00222816
0.00260027
0.00286492
0.0030936
0.00313507
0.0031196
0.0030038
0.00289637
0.00268935
0.0025851
0.00238404
0.00229287
0.00212428
0.00204561
0.00190988
0.00184323
0.00173532
0.00167921
0.00159291
0.0015462
0.00147698
0.00143891
0.00138325
0.00135231
0.00130741
0.00128265
0.00124645
0.00122562
0.00119798
0.00117746
0.00115262
0.001133
0.00111409
0.00109956
0.00108502
0.00106948
0.00105836
0.00104428
0.00103453
0.00102125
0.00101019
0.000995472
0.000984531
0.000967728
0.000957247
0.000938955
0.00092775
0.000909478
0.000894966
0.000877685
0.00086267
0.000844645
0.000828082
0.000809101
0.000793764
0.000778491
0.000764033
0.000747078
0.000728823
0.000708841
0.00068967
0.000668056
0.000648074
0.000628214
0.000610579
0.000590499
0.000573292
0.000558806
0.000547352
0.00053871
0.000532804
0.000527863
0.000526056
0.000524986
0.000526598
0.000529059
0.000534808
0.000541386
0.000556334
0.000569096
0.000574822
0.000584139
0.00060067
0.000617718
0.000639631
0.00066147
0.000686569
0.000711645
0.000745044
0.000777243
0.0008122
0.000849041
0.00089067
0.000932848
0.000978419
0.00102629
0.00105912
0.00107752
0.00107917
0.00106296
0.00103134
0.00104799
0.000973996
0.000965519
0.000928606
0.000884066
0.000854703
0.000815163
0.000795449
0.000769153
0.000746273
0.000718089
0.000701528
0.000681551
0.000670168
0.000657446
0.000646422
0.000629925
0.000620412
0.00061047
0.000603827
0.000596053
0.000591576
0.000582233
0.000575656
0.000567302
0.000563374
0.000555296
0.000551491
0.000542672
0.000539851
0.000530645
0.000528044
0.000517176
0.000514456
0.000506649
0.000508661
0.000499305
0.000498905
0.000486833
0.000484662
0.000468712
0.000465648
0.000448737
0.000444109
0.000418617
0.000406832
0.00037451
0.000359477
0.000319257
0.000292627
0.000242159
0.000208652
0.000154843
0.000140246
0.000103658
0.000112924
0.000154224
0.000240816
0.000331276
0.000467478
0.000680679
0.000876096
0.00100817
0.00100932
0.00117623
0.00143217
0.00171698
0.0019208
0.0024958
0.00274529
0.00287135
0.0029658
0.00306656
0.00311909
0.00309308
0.00294903
0.00276329
0.00258109
0.00243541
0.00230198
0.00216049
0.00200713
0.00187434
0.00176361
0.00174772
0.00181737
0.00186491
0.00195042
0.0020359
0.00207193
0.00209799
0.00209074
0.00209294
0.00211128
0.00231514
0.00251459
0.0026476
0.00276258
0.00282728
0.00282356
0.00277153
0.00268758
0.00254754
0.00241211
0.00228726
0.00231263
0.00240917
0.00257416
0.00269218
0.00278601
0.0028413
0.00287366
0.00286535
0.00286347
0.00284687
0.00282693
0.00276946
0.00269056
0.00257887
0.00245875
0.00233468
0.00227762
0.00217911
0.00209046
0.00211267
0.00205756
0.00201553
0.00196042
0.00194526
0.00189843
0.00187746
0.00183689
0.00172868
0.00152698
0.00114233
0.00085543
0.000776547
0.000746179
0.00072278
0.000701164
0.000683273
0.00066011
0.000617079
0.000573114
0.000557449
0.000543302
0.000505514
0.000469179
0.000455793
0.000446919
0.000429902
0.00041162
0.000400705
0.000400411
0.000407265
0.000415154
0.000422895
0.000444145
0.000473069
0.000504533
0.000540486
0.000586543
0.000638129
0.000694943
0.000766078
0.000856985
0.0009559
0.00107356
0.00121871
0.00138398
0.00157292
0.00178999
0.00204572
0.00230495
0.00254985
0.00279622
0.00303446
0.00324582
0.00343332
0.00363759
0.00380811
0.00398102
0.00416692
0.00436501
0.00458355
0.00479338
0.0050047
0.00518796
0.00537521
0.00551002
0.00561916
0.0056523
0.00566305
0.00559276
0.00551804
0.00538665
0.00527804
0.00515856
0.00510112
0.00510354
0.00523383
0.00549524
0.00598448
0.00668589
0.00766383
0.00878778
0.00993891
0.0110933
0.0117791
0.0122516
0.0121432
0.0117312
0.0110627
0.0100336
0.00886978
0.00745588
0.00579324
0.004235
0.00277492
0.00167528
0.000903099
0.000554141
0.000335022
0.000310009
0.000268819
0.000326169
0.000293895
0.000380661
0.000326824
0.000431438
0.000354578
0.000476075
0.00038633
0.000494152
0.000421077
0.00053197
0.000422968
0.000562173
0.000478679
0.000512572
0.000439284
0.00041639
0.000416583
0.000439295
0.000512666
0.000478892
0.000562368
0.000423334
0.000532072
0.000420971
0.000493886
0.000386188
0.000475755
0.000354663
0.000431145
0.000326816
0.000380937
0.000295422
0.000329658
0.000273202
0.000317082
0.000332199
0.000496605
0.000680702
0.00103906
0.0013484
0.00175166
0.00202615
0.00240047
0.00264466
0.00292253
0.00290212
0.00301652
0.00279283
0.0028035
0.00256703
0.00250707
0.00231112
0.00223457
0.00207626
0.00200522
0.00187694
0.00181689
0.00171258
0.00166266
0.00157768
0.00153611
0.00146709
0.00143234
0.00137652
0.00134767
0.00130269
0.00127901
0.00124252
0.00122248
0.00119427
0.00117406
0.0011498
0.00113033
0.00111193
0.001097
0.00108257
0.001067
0.00105634
0.0010419
0.00103245
0.0010191
0.00100823
0.000993439
0.000982858
0.000966066
0.000955826
0.00093763
0.000926566
0.000908187
0.000894028
0.000876654
0.000861918
0.000843838
0.000827265
0.000808291
0.000793015
0.000777769
0.000763272
0.000746472
0.000728597
0.000708907
0.000690325
0.000668671
0.000648806
0.000628814
0.000610604
0.000591516
0.000574164
0.00055972
0.000548477
0.000539608
0.000533657
0.000528613
0.000526587
0.000525587
0.00052731
0.000529727
0.000535341
0.000542086
0.00055677
0.000568987
0.00057465
0.000583484
0.000601126
0.000617867
0.000639376
0.000660881
0.000685753
0.000710521
0.000743629
0.000775163
0.00081042
0.000846313
0.000888429
0.000930521
0.000975137
0.0010258
0.00105786
0.00107415
0.00107688
0.00106084
0.00102958
0.00104748
0.000972252
0.00096718
0.000932485
0.000888975
0.000859902
0.000820232
0.000800253
0.000773709
0.000750763
0.000722236
0.000705461
0.000685013
0.00067336
0.000660122
0.000649034
0.000632346
0.000622666
0.000612342
0.000605541
0.000597392
0.000592717
0.000583093
0.000576409
0.000567736
0.000563597
0.00055516
0.000551159
0.000542029
0.000538994
0.000529487
0.0005267
0.000515645
0.000512843
0.000504614
0.00050624
0.000496444
0.000495834
0.000483314
0.000481032
0.000464686
0.000461672
0.000444167
0.000440175
0.000414821
0.000405262
0.000372678
0.000360198
0.000317873
0.000295602
0.000243096
0.000212837
0.000156547
0.000134401
0.00010422
0.000105936
0.000143872
0.000245196
0.000289782
0.00046576
0.000644175
0.000825013
0.000959515
0.000972172
0.00113958
0.00137565
0.00166083
0.00190687
0.00249539
0.0027694
0.00287935
0.00298035
0.00303898
0.00308708
0.00305736
0.00294101
0.00275926
0.00258119
0.00242979
0.0022992
0.00216274
0.00201415
0.00188084
0.00176257
0.00173899
0.00181084
0.00185415
0.00194587
0.0020275
0.00206847
0.00209905
0.002098
0.00209696
0.0021064
0.00228398
0.00250613
0.00264532
0.00276288
0.00282563
0.00282702
0.00277142
0.00269239
0.00254999
0.00242107
0.0022934
0.00231942
0.0024027
0.00257014
0.00268514
0.00278281
0.00283822
0.00287202
0.00286372
0.00286088
0.00284478
0.00282436
0.00276962
0.00268995
0.00257894
0.00245598
0.00233407
0.00227536
0.00218101
0.00208931
0.00211076
0.00205841
0.00201437
0.0019594
0.00194352
0.00189785
0.00187688
0.00183832
0.00173198
0.00153331
0.00114518
0.000852051
0.000773519
0.000743954
0.000720419
0.00069791
0.000679058
0.000655914
0.000614764
0.000571772
0.000557339
0.000543054
0.000507079
0.000471383
0.000455463
0.00044779
0.000434364
0.000417269
0.000405769
0.000405539
0.000412964
0.00042248
0.000431346
0.000453519
0.000483899
0.000515817
0.000551465
0.00059809
0.000649682
0.000706772
0.000778663
0.000871563
0.000971862
0.00109059
0.00123781
0.00140561
0.00159721
0.00181862
0.00208091
0.00234882
0.0026036
0.00285783
0.00310586
0.00332438
0.00351947
0.00373006
0.00390656
0.00408768
0.00427843
0.00447868
0.0046969
0.00490971
0.00512908
0.00531968
0.00551036
0.00564808
0.00576217
0.00580361
0.00582419
0.00577042
0.00571256
0.00560302
0.00551075
0.00540985
0.00536688
0.00537615
0.005507
0.00575788
0.00621783
0.00687383
0.00776155
0.0087744
0.00983198
0.0108989
0.0116448
0.0122308
0.012311
0.0120326
0.0114853
0.0104621
0.00932546
0.00795133
0.00625635
0.00452336
0.00285698
0.00170166
0.000905891
0.000559859
0.000332761
0.000308119
0.000267548