/*--------------------------------*- C++ -*----------------------------------*\
| =========                 |                                                 |
| \\      /  F ield         | OpenFOAM: The Open Source CFD Toolbox           |
|  \\    /   O peration     | Version:  v2006                                 |
|   \\  /    A nd           | Website:  www.openfoam.com                      |
|    \\/     M anipulation  |                                                 |
\*---------------------------------------------------------------------------*/
FoamFile
{
    version     2.0;
    format      ascii;
    class       volScalarField;
    location    "185";
    object      rho;
}
// * * * * * * * * * * * * * * * * * * * * * * * * * * * * * * * * * * * * * //

dimensions      [1 -3 0 0 0 0 0];


internalField   nonuniform List<scalar> 
93840
(
0.99625
0.959263
0.991185
1.00676
0.982441
1.00196
0.974558
1.00008
1.00183
1.01662
1.00537
1.02126
1.01222
1.02841
1.01962
1.03499
1.03054
1.04523
1.03939
1.05068
1.04086
1.04371
1.03312
1.03861
1.02783
1.03464
1.02809
1.03662
1.03217
1.0359
1.02688
1.04557
1.0241
1.03478
1.03105
1.03907
1.03534
1.0421
1.03918
1.04499
1.04245
1.04702
1.04499
1.04883
1.04741
1.05076
1.05002
1.05269
1.05186
1.05473
1.05378
1.05591
1.05565
1.05797
1.05707
1.05842
1.05837
1.05889
1.05889
1.06098
1.06077
1.06137
1.06104
1.06135
1.061
1.06155
1.06099
1.06055
1.06021
1.06015
1.05961
1.05926
1.05845
1.05762
1.05677
1.05583
1.05492
1.05393
1.05285
1.05164
1.05054
1.04922
1.0479
1.04613
1.04439
1.04255
1.04059
1.0386
1.03659
1.03442
1.03191
1.02924
1.02654
1.0236
1.02051
1.0171
1.01368
1.01012
1.00646
1.00249
0.998435
0.994378
0.990279
0.983782
0.977201
0.974419
0.971886
0.966443
0.96062
0.954858
0.949255
0.943739
0.938531
0.93238
0.927085
0.921819
0.917419
0.911951
0.908042
0.903665
0.901167
0.897702
0.897848
0.89638
0.89899
0.902229
0.903086
0.910082
0.911631
0.916848
0.923048
0.926902
0.934531
0.937075
0.944234
0.946491
0.954544
0.956942
0.964341
0.966675
0.972354
0.975271
0.981485
0.984906
0.9903
0.994308
0.998805
1.00312
1.00814
1.01309
1.01798
1.02236
1.02753
1.03271
1.03857
1.04384
1.05
1.05586
1.06281
1.06864
1.07492
1.08098
1.08774
1.09365
1.10088
1.10888
1.11778
1.12651
1.13523
1.14343
1.15358
1.16509
1.17685
1.18746
1.20001
1.21343
1.22808
1.24483
1.26044
1.27555
1.28403
1.29303
1.26733
1.23131
1.13971
1.05547
0.937389
0.870703
0.8326
0.833236
0.763716
0.712392
0.669356
0.673637
0.636825
0.635632
0.609627
0.613213
0.604949
0.602881
0.601613
0.601247
0.602058
0.601282
0.601578
0.60236
0.603326
0.604018
0.605123
0.605908
0.606479
0.607279
0.607741
0.607862
0.608274
0.608774
0.609703
0.61007
0.609569
0.60828
0.606964
0.605282
0.605754
0.607168
0.608702
0.61003
0.610531
0.611586
0.614218
0.615651
0.6147
0.6121
0.60803
0.606348
0.603935
0.602827
0.602841
0.600155
0.597523
0.59545
0.593028
0.588552
0.586612
0.582678
0.580435
0.57895
0.57626
0.573075
0.575548
0.572689
0.563249
0.566926
0.558368
0.560189
0.552476
0.551589
0.54731
0.543159
0.553485
0.574798
0.639765
0.712911
0.740569
0.756443
0.768774
0.779514
0.788975
0.797822
0.806841
0.815439
0.821477
0.827228
0.834108
0.84155
0.847134
0.851922
0.857044
0.862731
0.867968
0.872852
0.877563
0.882153
0.886597
0.890908
0.895096
0.899163
0.902965
0.906678
0.910219
0.913677
0.917004
0.920198
0.923323
0.926262
0.929201
0.931853
0.934644
0.937016
0.939696
0.941757
0.944338
0.946033
0.94858
0.949952
0.952568
0.953551
0.956189
0.956705
0.959426
0.9595
0.962389
0.961983
0.965096
0.964163
0.967517
0.966035
0.969718
0.967687
0.971754
0.969152
0.973608
0.970395
0.975275
0.971441
0.97682
0.972325
0.978237
0.973047
0.979524
0.973561
0.980718
0.973731
0.981877
0.97332
0.982409
0.972499
0.979167
0.986633
1.00097
1.00878
1.02361
1.0272
1.03797
1.03177
1.03908
1.03323
1.04241
1.04059
1.04999
1.0396
1.04552
1.03077
1.03471
1.01982
1.02822
1.01226
1.02145
1.00525
1.01634
1.00129
0.999872
0.974605
1.00159
0.982187
1.00644
0.991258
0.959029
0.995987
0.995911
0.959098
0.991359
1.00653
0.982201
1.0018
0.974524
1.00019
1.00123
1.01637
1.00538
1.02146
1.01222
1.02813
1.01981
1.03472
1.03082
1.04551
1.03966
1.05081
1.04301
1.04553
1.03528
1.04058
1.03188
1.03656
1.0297
1.03064
1.02445
1.02834
1.02277
1.02702
1.02781
1.03265
1.03237
1.03717
1.03596
1.04069
1.03914
1.04365
1.04198
1.04594
1.0444
1.04788
1.04673
1.04973
1.04908
1.05161
1.05091
1.05353
1.05269
1.05477
1.05448
1.05647
1.05573
1.05726
1.05729
1.05768
1.05751
1.05949
1.05947
1.05991
1.05961
1.05993
1.05966
1.06011
1.05964
1.05926
1.0589
1.05885
1.05835
1.05803
1.05726
1.05651
1.05567
1.05478
1.05392
1.053
1.05199
1.05085
1.0498
1.04854
1.0473
1.04565
1.044
1.04226
1.04041
1.03852
1.03662
1.03458
1.03224
1.02974
1.02722
1.02446
1.02158
1.01839
1.0152
1.01187
1.00847
1.00477
1.00102
0.997225
0.993436
0.987502
0.981417
0.97872
0.976329
0.971392
0.966098
0.960823
0.955697
0.950657
0.945924
0.940351
0.935592
0.930836
0.92689
0.922006
0.918561
0.914662
0.912473
0.909455
0.909746
0.908559
0.911141
0.914387
0.915362
0.922002
0.923761
0.928731
0.934769
0.93843
0.94577
0.94841
0.955328
0.957624
0.965369
0.967878
0.975001
0.977454
0.982836
0.985794
0.991625
0.995099
1.00029
1.00436
1.00867
1.01302
1.01767
1.02245
1.02713
1.03137
1.03631
1.04131
1.04686
1.05192
1.05761
1.06314
1.06961
1.075
1.08102
1.08647
1.09246
1.0979
1.10476
1.11184
1.11983
1.12799
1.13624
1.14392
1.15331
1.16409
1.17539
1.1866
1.19853
1.21077
1.22398
1.23854
1.25159
1.264
1.2676
1.27461
1.25536
1.23309
1.17383
1.11056
1.02468
0.958377
0.90228
0.878347
0.818125
0.775409
0.731404
0.721956
0.678924
0.678033
0.655095
0.656859
0.644138
0.641518
0.638398
0.63853
0.638605
0.637014
0.636224
0.636302
0.636558
0.636636
0.636966
0.636998
0.63693
0.63711
0.636891
0.636431
0.636205
0.636217
0.63654
0.636402
0.635267
0.633998
0.631973
0.629738
0.629707
0.630752
0.631831
0.632641
0.632587
0.633357
0.635492
0.636491
0.635237
0.632507
0.627846
0.626194
0.623535
0.621969
0.621792
0.618888
0.616062
0.614053
0.611418
0.606626
0.604559
0.60095
0.598083
0.596923
0.593956
0.590987
0.592907
0.58996
0.580643
0.583938
0.575882
0.577185
0.569487
0.568465
0.564542
0.559783
0.571755
0.58777
0.653362
0.721068
0.745021
0.759405
0.77106
0.781392
0.790569
0.799189
0.807864
0.816151
0.822123
0.827882
0.834572
0.841715
0.84716
0.85193
0.856962
0.862467
0.86754
0.872298
0.876882
0.881345
0.885657
0.889842
0.89389
0.897824
0.901499
0.905095
0.908511
0.911862
0.91506
0.91816
0.921159
0.924018
0.926835
0.929432
0.932099
0.934435
0.936991
0.939038
0.941495
0.943211
0.945634
0.947044
0.949511
0.950557
0.953041
0.953655
0.956222
0.956407
0.959133
0.958861
0.961788
0.961018
0.964184
0.962892
0.966371
0.964549
0.968391
0.966009
0.970235
0.967264
0.971915
0.968337
0.973467
0.969248
0.974894
0.969995
0.976202
0.97057
0.977424
0.970886
0.978813
0.970393
0.981745
0.968386
0.983629
0.978444
0.987085
0.987764
1.00227
1.00463
1.02241
1.02258
1.03532
1.03054
1.03989
1.03767
1.04936
1.03944
1.04541
1.03058
1.03513
1.01966
1.02844
1.01225
1.02126
1.0053
1.01678
1.00177
1.00015
0.974638
1.00202
0.982383
1.0067
0.991181
0.959241
0.996223
0.996269
0.959303
0.991122
1.00687
0.982506
1.00193
0.974728
1.00039
1.00167
1.01667
1.00551
1.02118
1.01213
1.02831
1.01958
1.03497
1.03052
1.04512
1.03944
1.05159
1.04373
1.04801
1.03631
1.04166
1.0306
1.03665
1.02806
1.03571
1.02974
1.03532
1.03219
1.03718
1.02758
1.03983
1.03183
1.04075
1.03582
1.04248
1.03934
1.04453
1.04232
1.0464
1.04481
1.04816
1.04716
1.04994
1.04944
1.05178
1.05121
1.05365
1.053
1.05487
1.0548
1.05665
1.05585
1.05722
1.05747
1.05794
1.05771
1.05957
1.05958
1.06003
1.05979
1.06011
1.05985
1.06031
1.05989
1.05948
1.05916
1.05912
1.05866
1.05837
1.05767
1.05695
1.05613
1.05529
1.05448
1.0536
1.05266
1.05158
1.0506
1.04939
1.04822
1.04664
1.04508
1.04342
1.04166
1.03987
1.03807
1.03615
1.03394
1.03159
1.02922
1.02662
1.02391
1.02091
1.01791
1.01479
1.0116
1.00814
1.00463
1.00109
0.997545
0.991925
0.986174
0.983724
0.98158
0.976982
0.972061
0.967159
0.962394
0.957712
0.953317
0.948135
0.943716
0.939301
0.935635
0.931057
0.92788
0.924186
0.922123
0.919182
0.919552
0.918457
0.920839
0.923963
0.92491
0.931386
0.933051
0.937868
0.943997
0.947485
0.95492
0.957136
0.964136
0.966109
0.973729
0.975836
0.982879
0.985215
0.990712
0.993413
0.999252
1.00242
1.00745
1.01111
1.01529
1.01916
1.02393
1.02839
1.0328
1.03671
1.04146
1.04596
1.05128
1.05572
1.06139
1.06652
1.07275
1.07781
1.0833
1.08837
1.09447
1.10051
1.1075
1.11396
1.12158
1.12945
1.13794
1.14665
1.15668
1.16637
1.17775
1.18829
1.20061
1.21376
1.22865
1.24293
1.25825
1.27275
1.27731
1.28737
1.26422
1.23987
1.18349
1.11675
1.02502
0.960429
0.907084
0.886468
0.825797
0.779566
0.737299
0.730914
0.689263
0.684544
0.662656
0.665873
0.653877
0.650897
0.650554
0.650152
0.651803
0.652169
0.652585
0.653858
0.655193
0.656062
0.657
0.658143
0.658371
0.658772
0.658892
0.658522
0.65841
0.658391
0.65862
0.658519
0.657182
0.655381
0.653654
0.651106
0.650676
0.651618
0.652415
0.652933
0.65258
0.653191
0.654999
0.655909
0.654084
0.650998
0.646059
0.643873
0.640642
0.639372
0.638803
0.635803
0.632449
0.630337
0.627468
0.62296
0.62076
0.616529
0.614125
0.612274
0.609683
0.605624
0.607951
0.604485
0.59557
0.598446
0.589806
0.591618
0.58367
0.583256
0.577533
0.575215
0.582791
0.601342
0.662387
0.73284
0.753997
0.766263
0.776673
0.786243
0.794881
0.803064
0.811311
0.819257
0.825042
0.83064
0.837101
0.844013
0.849305
0.853966
0.858863
0.864214
0.869148
0.873785
0.878248
0.882599
0.886797
0.890873
0.894807
0.898636
0.902206
0.905707
0.909019
0.912286
0.915381
0.918402
0.921296
0.924087
0.9268
0.929348
0.931913
0.934214
0.936668
0.938696
0.941052
0.942768
0.945088
0.946511
0.948868
0.94994
0.952317
0.952973
0.955434
0.955669
0.958286
0.958075
0.960891
0.960191
0.963247
0.962036
0.965402
0.96367
0.967396
0.965107
0.969218
0.966346
0.970883
0.967412
0.972423
0.96833
0.973854
0.969095
0.975163
0.969731
0.976325
0.970302
0.9773
0.970937
0.978176
0.971638
0.980292
0.974995
0.982493
0.982606
0.99369
0.998013
1.01462
1.0188
1.03229
1.03006
1.03868
1.03703
1.04807
1.03912
1.04553
1.03057
1.03485
1.01984
1.02817
1.01236
1.02135
1.00524
1.01644
1.00126
0.999822
0.974435
1.00166
0.982273
1.00646
0.99131
0.958906
0.996101
0.995473
0.959047
0.991271
1.00658
0.982225
1.00192
0.97445
1.00016
1.00133
1.01636
1.00544
1.02132
1.01226
1.02807
1.01978
1.03455
1.03086
1.04544
1.03961
1.05114
1.04498
1.04949
1.03849
1.04338
1.03456
1.03953
1.03133
1.03477
1.02775
1.03239
1.02741
1.03394
1.0309
1.03581
1.03422
1.03881
1.03731
1.04171
1.04019
1.04433
1.04283
1.04654
1.04521
1.04847
1.04752
1.05027
1.04972
1.0521
1.05153
1.05391
1.05335
1.05518
1.05517
1.05691
1.0562
1.05759
1.0579
1.05843
1.05815
1.0599
1.06002
1.06036
1.06028
1.06055
1.06039
1.06074
1.06043
1.06009
1.05973
1.05971
1.05927
1.05905
1.05839
1.05772
1.05693
1.05613
1.05536
1.05452
1.05364
1.05261
1.05167
1.05052
1.04941
1.04791
1.04642
1.04483
1.04316
1.04144
1.03972
1.03789
1.0358
1.03359
1.03134
1.02888
1.02631
1.02346
1.02063
1.01767
1.01466
1.01139
1.00808
1.00471
1.00135
0.996044
0.990601
0.988287
0.98625
0.981958
0.977352
0.972732
0.968218
0.96379
0.959626
0.954701
0.950529
0.946298
0.942755
0.938406
0.935317
0.931752
0.929605
0.926824
0.926998
0.92597
0.92841
0.931409
0.932316
0.93863
0.940261
0.945021
0.950863
0.954088
0.961234
0.963508
0.970271
0.972292
0.979656
0.982068
0.98876
0.991159
0.995913
0.998769
1.00389
1.00717
1.01177
1.01558
1.0193
1.02342
1.02731
1.03156
1.03558
1.03941
1.04364
1.04823
1.05312
1.05789
1.06299
1.06817
1.07412
1.0793
1.08496
1.08978
1.09575
1.10194
1.10885
1.11555
1.12331
1.1311
1.13966
1.14873
1.15828
1.1689
1.17971
1.19043
1.20246
1.21502
1.22803
1.24152
1.25353
1.26322
1.26787
1.27353
1.26416
1.24319
1.19629
1.14028
1.06403
0.99738
0.941381
0.911457
0.853433
0.807794
0.762314
0.750622
0.704821
0.698469
0.676453
0.676942
0.661141
0.660418
0.655112
0.657622
0.658529
0.659206
0.659322
0.660937
0.662534
0.664853
0.666533
0.668207
0.669704
0.671207
0.671971
0.672301
0.67273
0.673506
0.674285
0.674591
0.673239
0.67236
0.669904
0.667446
0.666977
0.667798
0.668681
0.669001
0.668417
0.669045
0.670718
0.671425
0.669662
0.666519
0.660706
0.658472
0.655409
0.652985
0.65235
0.649079
0.64574
0.643488
0.640487
0.634951
0.632567
0.628831
0.625659
0.624258
0.621327
0.617858
0.619603
0.616539
0.606643
0.609721
0.601663
0.603026
0.593782
0.594363
0.588089
0.586373
0.59293
0.611598
0.672303
0.74373
0.76346
0.773972
0.783166
0.791841
0.799839
0.807522
0.81527
0.822796
0.828357
0.833813
0.840037
0.846658
0.851776
0.856359
0.861145
0.866341
0.871136
0.875663
0.880021
0.884268
0.888366
0.892354
0.896194
0.899937
0.903422
0.906847
0.910077
0.913267
0.916279
0.919235
0.922052
0.924787
0.927426
0.929922
0.932414
0.93467
0.937051
0.939045
0.941335
0.943032
0.945292
0.946699
0.948989
0.950044
0.952364
0.953011
0.955422
0.955652
0.95822
0.958004
0.960774
0.960072
0.963093
0.961883
0.965222
0.963482
0.967184
0.964881
0.968978
0.966091
0.970629
0.96714
0.972164
0.968033
0.97359
0.968789
0.974928
0.969423
0.976237
0.969942
0.977709
0.970321
0.9796
0.971297
0.980236
0.975149
0.981432
0.978579
0.987262
0.986636
1.00166
1.0062
1.02442
1.02583
1.03606
1.03423
1.04738
1.0392
1.04534
1.03051
1.03518
1.01962
1.02846
1.01229
1.0213
1.00532
1.01669
1.00177
1.00017
0.974675
1.00187
0.982435
1.00667
0.991182
0.959261
0.996445
0.996459
0.959374
0.991204
1.00694
0.98251
1.00183
0.974943
1.00054
1.00164
1.01675
1.00556
1.02116
1.01211
1.02825
1.0195
1.03487
1.0307
1.04518
1.03959
1.052
1.04514
1.05167
1.03945
1.04471
1.03351
1.03972
1.03155
1.03885
1.03258
1.03845
1.03356
1.03907
1.03311
1.04092
1.03518
1.04245
1.03804
1.04407
1.04097
1.04585
1.0437
1.04762
1.04613
1.04933
1.04846
1.05105
1.05061
1.05288
1.05235
1.05464
1.05421
1.05586
1.05599
1.05773
1.05693
1.05813
1.05864
1.05934
1.05904
1.06063
1.06076
1.06113
1.06112
1.06137
1.06123
1.0616
1.06133
1.06099
1.06069
1.06068
1.06026
1.06004
1.05945
1.05884
1.05807
1.0573
1.05657
1.05578
1.05495
1.05396
1.05309
1.05197
1.05092
1.04949
1.04807
1.04655
1.04496
1.04333
1.0417
1.03996
1.03798
1.03588
1.03375
1.03142
1.02899
1.02629
1.02361
1.02082
1.01797
1.01488
1.01173
1.00854
1.00532
1.00024
0.99508
0.992936
0.991045
0.986952
0.982586
0.978175
0.973849
0.969584
0.965546
0.960804
0.956744
0.952625
0.949152
0.944842
0.941817
0.938185
0.93604
0.933098
0.933365
0.932254
0.93429
0.937252
0.937987
0.944159
0.945635
0.950165
0.956215
0.959313
0.966544
0.968343
0.975121
0.976786
0.983999
0.985663
0.992323
0.994363
0.999492
1.00174
1.00708
1.00988
1.01434
1.01755
1.0213
1.02472
1.02913
1.03326
1.03727
1.0409
1.04529
1.04951
1.05461
1.05887
1.06448
1.06928
1.07546
1.08089
1.08617
1.09111
1.09729
1.10325
1.11032
1.11722
1.12519
1.13273
1.14131
1.14995
1.15984
1.16965
1.18124
1.19113
1.20357
1.21551
1.2299
1.24116
1.25447
1.26421
1.2668
1.27317
1.25796
1.23881
1.1912
1.13596
1.05851
0.997195
0.93927
0.912163
0.854079
0.811316
0.765244
0.755941
0.706958
0.701058
0.679097
0.678469
0.663526
0.657874
0.657511
0.656581
0.658061
0.657905
0.658867
0.660121
0.662121
0.663436
0.66639
0.66874
0.670313
0.672304
0.673581
0.674886
0.675633
0.677486
0.679371
0.681055
0.680777
0.680351
0.679402
0.677526
0.677737
0.679355
0.68066
0.681389
0.681122
0.682002
0.68381
0.684771
0.682859
0.679719
0.674108
0.671179
0.667478
0.665564
0.664994
0.661208
0.65759
0.654841
0.65225
0.646791
0.644769
0.640092
0.63714
0.635078
0.632956
0.627968
0.630029
0.626547
0.617285
0.620096
0.610703
0.613194
0.603857
0.60476
0.597044
0.59643
0.601752
0.620412
0.68129
0.75374
0.774623
0.783462
0.791161
0.79883
0.806054
0.813073
0.820234
0.827283
0.832531
0.837702
0.843615
0.849967
0.854897
0.859321
0.863934
0.868949
0.873591
0.877989
0.882226
0.886364
0.890354
0.894234
0.897965
0.901606
0.904997
0.90834
0.911484
0.914603
0.917534
0.920418
0.923151
0.925816
0.928372
0.930813
0.93323
0.935443
0.937754
0.939711
0.941935
0.943601
0.945795
0.947177
0.9494
0.950442
0.952698
0.953344
0.955694
0.955928
0.958436
0.958225
0.960937
0.96025
0.96321
0.962024
0.965294
0.96359
0.967217
0.964965
0.968976
0.966159
0.970595
0.967199
0.972095
0.968114
0.973482
0.968921
0.974751
0.969678
0.975902
0.970486
0.976977
0.971472
0.978139
0.972837
0.979705
0.974884
0.981242
0.978885
0.984935
0.986341
0.998543
1.00255
1.01832
1.02272
1.03406
1.03323
1.0458
1.03878
1.04557
1.03058
1.03496
1.0198
1.02817
1.01242
1.02142
1.00524
1.01648
1.00136
0.999977
0.974454
1.00164
0.982317
1.00641
0.991357
0.958835
0.996191
0.995448
0.959113
0.991323
1.0066
0.982189
1.0019
0.974441
1.00027
1.00107
1.01644
1.00554
1.0213
1.01224
1.02798
1.01972
1.03434
1.03083
1.04532
1.03955
1.05137
1.04606
1.05306
1.04191
1.04659
1.03734
1.04248
1.03411
1.03808
1.03174
1.0366
1.03226
1.03779
1.03459
1.03928
1.03716
1.04146
1.03973
1.04382
1.04225
1.04612
1.04469
1.04821
1.04696
1.05009
1.04921
1.05188
1.05129
1.05371
1.05306
1.05541
1.05503
1.05663
1.05682
1.05858
1.05774
1.05884
1.05948
1.06033
1.06003
1.06146
1.06156
1.06201
1.06204
1.06235
1.06224
1.06257
1.06236
1.06212
1.06178
1.06179
1.0614
1.06123
1.0607
1.06012
1.05942
1.05868
1.05799
1.05722
1.05648
1.05553
1.05471
1.05366
1.05266
1.05131
1.04997
1.04852
1.04702
1.04547
1.04392
1.04227
1.04041
1.03844
1.03644
1.03424
1.03194
1.02939
1.02686
1.02421
1.02152
1.01859
1.0156
1.01255
1.00948
1.00464
0.999742
0.997714
0.99584
0.99196
0.987801
0.98355
0.979334
0.975175
0.971213
0.966538
0.962567
0.958444
0.954917
0.950684
0.947546
0.943913
0.941519
0.938695
0.938573
0.937485
0.939677
0.94227
0.942951
0.948835
0.950198
0.95472
0.960173
0.96286
0.969611
0.97129
0.977702
0.979221
0.986042
0.988124
0.994323
0.996347
1.00055
1.00307
1.00755
1.01047
1.01478
1.01831
1.02176
1.02577
1.02949
1.03356
1.03755
1.04149
1.04553
1.05034
1.05512
1.05992
1.0651
1.0704
1.07619
1.08132
1.08714
1.09211
1.09839
1.10463
1.11158
1.11835
1.12618
1.13397
1.14282
1.1518
1.16146
1.17139
1.18236
1.19249
1.20482
1.2161
1.2293
1.24091
1.25157
1.26027
1.26357
1.27052
1.25792
1.24128
1.20176
1.15123
1.0864
1.02705
0.967544
0.932526
0.877631
0.837901
0.789446
0.771557
0.723848
0.717036
0.692628
0.6855
0.670073
0.66836
0.66163
0.66198
0.661945
0.662695
0.661522
0.663203
0.664035
0.666277
0.668114
0.670673
0.671889
0.673853
0.674695
0.675968
0.676494
0.678715
0.680485
0.682293
0.682364
0.683011
0.681769
0.680923
0.681709
0.683633
0.685802
0.687563
0.688288
0.690059
0.692533
0.694112
0.693213
0.690373
0.684679
0.682119
0.678916
0.676135
0.675233
0.671849
0.668418
0.665652
0.662445
0.656601
0.653884
0.64967
0.646988
0.644758
0.642194
0.638104
0.639622
0.637005
0.626233
0.629195
0.62119
0.622492
0.612207
0.613646
0.606394
0.604958
0.610008
0.628269
0.690316
0.76469
0.786134
0.793557
0.800266
0.806967
0.813387
0.819703
0.826165
0.832643
0.837517
0.842387
0.847934
0.8539
0.85858
0.862847
0.867278
0.872092
0.876556
0.880801
0.88489
0.888886
0.892744
0.896513
0.900135
0.90368
0.906975
0.910226
0.913273
0.916297
0.919135
0.921942
0.924595
0.927199
0.929682
0.932061
0.934403
0.936552
0.938789
0.940695
0.942852
0.944486
0.946623
0.947972
0.950138
0.951142
0.953351
0.953962
0.956273
0.956475
0.958945
0.958709
0.961387
0.960676
0.963618
0.962402
0.965669
0.963922
0.967559
0.965247
0.969291
0.966398
0.970893
0.967402
0.97239
0.968278
0.973791
0.969053
0.975121
0.969766
0.976422
0.970485
0.977788
0.971334
0.979197
0.972731
0.980191
0.97495
0.981343
0.976988
0.984258
0.982141
0.991572
0.993679
1.01058
1.0164
1.03012
1.02996
1.04467
1.03835
1.04535
1.03042
1.0353
1.01964
1.02845
1.01222
1.02131
1.00528
1.01684
1.0018
1.00019
0.974673
1.00211
0.982446
1.00668
0.991473
0.959432
0.996376
0.996431
0.959409
0.991198
1.00703
0.982606
1.00179
0.975071
1.00073
1.00158
1.01673
1.00568
1.02105
1.01203
1.02817
1.01938
1.03457
1.03073
1.04503
1.03964
1.05222
1.04585
1.05479
1.04304
1.04856
1.03693
1.04338
1.03559
1.04216
1.03634
1.04155
1.03695
1.04191
1.03754
1.04327
1.0391
1.04481
1.04125
1.04638
1.04364
1.04806
1.04607
1.04975
1.04837
1.05138
1.05062
1.05308
1.05263
1.05491
1.05432
1.05657
1.05631
1.0577
1.05795
1.05976
1.05894
1.05983
1.06056
1.06162
1.06139
1.06264
1.06275
1.06315
1.06334
1.06356
1.06353
1.06383
1.06367
1.06345
1.06321
1.06324
1.06285
1.06267
1.06217
1.06168
1.06103
1.06033
1.05967
1.05896
1.05826
1.05737
1.05662
1.05559
1.05467
1.05338
1.05212
1.05075
1.04933
1.04787
1.0464
1.04485
1.0431
1.04124
1.03936
1.03727
1.03511
1.0327
1.03031
1.02781
1.02525
1.02246
1.01961
1.01669
1.0137
1.00904
1.00439
1.00245
1.00063
0.996844
0.992814
0.988633
0.984462
0.980301
0.976297
0.971643
0.967616
0.963458
0.959887
0.955548
0.952406
0.948516
0.946103
0.942908
0.942911
0.941477
0.943103
0.945502
0.945849
0.951317
0.952577
0.95648
0.962097
0.964637
0.971419
0.972655
0.978898
0.980157
0.986948
0.988321
0.994494
0.996267
1.00137
1.0035
1.00857
1.0113
1.01565
1.01897
1.02275
1.02599
1.03058
1.03447
1.03867
1.04216
1.0468
1.05086
1.05623
1.06026
1.06635
1.07086
1.07719
1.08232
1.08828
1.09287
1.09958
1.10499
1.11269
1.11922
1.12773
1.13456
1.14415
1.15214
1.16267
1.17115
1.18301
1.19165
1.20458
1.21502
1.22877
1.239
1.25018
1.25858
1.25937
1.26504
1.25127
1.23368
1.19319
1.14483
1.07667
1.02022
0.965138
0.928513
0.87732
0.836459
0.788786
0.770492
0.727299
0.719932
0.692651
0.684083
0.671536
0.666932
0.66153
0.65989
0.660155
0.660502
0.660474
0.660118
0.661693
0.663554
0.665874
0.668201
0.66989
0.671435
0.672499
0.673465
0.674644
0.675924
0.678526
0.680131
0.681161
0.680682
0.680766
0.678265
0.680105
0.682352
0.684754
0.686486
0.688197
0.689998
0.693189
0.69573
0.695773
0.694113
0.68985
0.687308
0.684685
0.683169
0.683501
0.679522
0.676769
0.673322
0.671753
0.665519
0.663839
0.658931
0.655763
0.653549
0.651922
0.646582
0.648196
0.645157
0.63541
0.638009
0.628759
0.631195
0.621258
0.622029
0.614715
0.613214
0.617603
0.634883
0.698474
0.775862
0.797764
0.804524
0.810214
0.816138
0.821825
0.827383
0.833126
0.838972
0.843396
0.847847
0.852961
0.85856
0.862971
0.866997
0.871183
0.875744
0.879994
0.884064
0.887994
0.891849
0.895569
0.899195
0.902679
0.90609
0.909265
0.912414
0.915364
0.918307
0.921055
0.923775
0.926331
0.928842
0.931232
0.933539
0.935801
0.937898
0.940064
0.941919
0.944008
0.945591
0.947656
0.948963
0.951056
0.952038
0.954175
0.954783
0.957021
0.957229
0.959628
0.959399
0.962004
0.961311
0.964168
0.962993
0.966157
0.964477
0.96799
0.96578
0.969671
0.966916
0.971221
0.967923
0.972658
0.968831
0.973985
0.969677
0.975206
0.970523
0.976337
0.971454
0.977447
0.972568
0.978635
0.973955
0.980016
0.97574
0.981315
0.978198
0.983386
0.982494
0.989684
0.992091
1.00556
1.01157
1.02657
1.02809
1.04268
1.038
1.04528
1.03037
1.03501
1.01979
1.02817
1.0125
1.02153
1.00523
1.0166
1.00148
1.00009
0.974466
1.00157
0.982345
1.00631
0.991561
0.95882
0.996253
0.99541
0.959239
0.991378
1.0066
0.982239
1.00205
0.974428
1.00045
1.00107
1.01644
1.00565
1.02123
1.01222
1.02797
1.01976
1.03405
1.03082
1.04507
1.03951
1.05144
1.04656
1.05557
1.04542
1.05056
1.04058
1.04599
1.03786
1.04202
1.0365
1.04106
1.03722
1.04189
1.03889
1.04317
1.04089
1.0449
1.04302
1.04683
1.04521
1.04885
1.04742
1.05078
1.04955
1.05256
1.05171
1.05433
1.05368
1.05618
1.05541
1.05774
1.05752
1.05882
1.05905
1.06101
1.06016
1.06092
1.06175
1.06293
1.06277
1.06386
1.06385
1.06449
1.06453
1.06498
1.06485
1.06524
1.06507
1.06492
1.06472
1.06478
1.06444
1.06422
1.06384
1.06336
1.06282
1.06212
1.06152
1.06083
1.06021
1.05937
1.05865
1.05773
1.05685
1.05566
1.05447
1.05317
1.05183
1.05045
1.04907
1.04761
1.04597
1.04424
1.04248
1.04052
1.03848
1.03619
1.03394
1.03155
1.02912
1.02644
1.0237
1.02087
1.01797
1.01347
1.00898
1.00709
1.00518
1.00148
0.997519
0.993333
0.989116
0.984916
0.980869
0.976063
0.97199
0.967623
0.963707
0.958979
0.955516
0.951229
0.9485
0.944693
0.944734
0.942279
0.945333
0.945896
0.947431
0.951454
0.953948
0.956868
0.963014
0.964072
0.971861
0.972248
0.979701
0.980057
0.987554
0.988704
0.995875
0.996768
1.00221
1.00368
1.00914
1.01074
1.01621
1.01869
1.02332
1.02621
1.03135
1.03409
1.03946
1.04224
1.04743
1.05117
1.05703
1.06089
1.06713
1.07127
1.07839
1.08211
1.08941
1.09339
1.10117
1.10626
1.11427
1.12002
1.12904
1.13566
1.14538
1.15354
1.16408
1.17274
1.18397
1.19342
1.20508
1.21581
1.2275
1.23803
1.24699
1.25403
1.25525
1.2617
1.24837
1.23616
1.19887
1.15497
1.09696
1.04181
0.987314
0.947095
0.898808
0.855415
0.808933
0.789005
0.746644
0.72929
0.702865
0.693893
0.679814
0.674442
0.666498
0.664337
0.665192
0.66191
0.663172
0.663051
0.663999
0.665365
0.667438
0.669259
0.670974
0.671977
0.673223
0.673542
0.674863
0.675873
0.67847
0.679778
0.681019
0.680163
0.680394
0.677993
0.679179
0.681348
0.683763
0.685512
0.687039
0.688954
0.692102
0.694781
0.695432
0.693498
0.689667
0.688343
0.686064
0.684497
0.685162
0.682768
0.680846
0.678291
0.67592
0.670858
0.668682
0.664527
0.662757
0.660091
0.658303
0.653632
0.655339
0.653226
0.642415
0.644669
0.637625
0.637871
0.628643
0.62895
0.623285
0.618823
0.624669
0.640653
0.705979
0.787191
0.809634
0.815364
0.820551
0.825863
0.830977
0.835918
0.840943
0.846156
0.850104
0.854131
0.858771
0.863884
0.867956
0.871743
0.875675
0.879979
0.883998
0.88786
0.891588
0.895248
0.898793
0.902276
0.905623
0.908918
0.911979
0.91501
0.917838
0.920659
0.923291
0.925918
0.928383
0.930826
0.933136
0.935367
0.937543
0.939557
0.941634
0.943424
0.945436
0.946977
0.948977
0.950245
0.952277
0.953207
0.955295
0.955847
0.958045
0.9582
0.960561
0.960292
0.962866
0.962136
0.964982
0.963756
0.966934
0.965178
0.968734
0.966417
0.970387
0.967495
0.97192
0.968448
0.973359
0.9693
0.974709
0.97009
0.975993
0.970865
0.977244
0.971697
0.978497
0.972705
0.979747
0.974056
0.980902
0.975672
0.982139
0.977263
0.983851
0.979875
0.98866
0.987065
1.00064
1.00547
1.02145
1.02402
1.04059
1.03759
1.04503
1.03029
1.03532
1.01968
1.02851
1.01225
1.02137
1.00534
1.01686
1.00183
1.00024
0.974587
1.00226
0.982543
1.00666
0.991661
0.959358
0.996489
0.996553
0.959474
0.99119
1.00708
0.98265
1.0017
0.975074
1.00099
1.00155
1.01682
1.00579
1.02098
1.0121
1.02822
1.01939
1.03435
1.03078
1.04456
1.03971
1.05233
1.04617
1.05653
1.04629
1.05303
1.04093
1.04717
1.04047
1.04563
1.04093
1.04498
1.04144
1.04536
1.04223
1.04647
1.04355
1.04787
1.04526
1.04936
1.04722
1.05097
1.04934
1.05261
1.05143
1.05419
1.05355
1.05588
1.05541
1.05773
1.05709
1.05924
1.0592
1.06031
1.06046
1.06244
1.06177
1.06247
1.06313
1.06451
1.06443
1.06542
1.06544
1.06598
1.06617
1.06656
1.06655
1.06686
1.06677
1.06665
1.06651
1.06661
1.06627
1.06607
1.0657
1.06532
1.06478
1.06417
1.0636
1.06297
1.06239
1.06162
1.06097
1.06006
1.05926
1.05813
1.05701
1.05581
1.05454
1.05325
1.05195
1.05058
1.04905
1.04742
1.04575
1.04389
1.04196
1.0398
1.03764
1.03536
1.033
1.03041
1.02773
1.02496
1.02205
1.01763
1.01328
1.01135
1.00936
1.00561
1.00165
0.997262
0.992852
0.988326
0.983882
0.978715
0.97433
0.969632
0.965414
0.960481
0.956705
0.952384
0.949259
0.945726
0.945282
0.943186
0.945714
0.946551
0.948006
0.951896
0.954357
0.957161
0.963691
0.965008
0.972751
0.972666
0.98019
0.98061
0.988237
0.988552
0.995494
0.99617
1.0025
1.00371
1.00987
1.01172
1.0169
1.01933
1.02411
1.0262
1.03191
1.03463
1.04017
1.04253
1.04839
1.05152
1.05775
1.06113
1.06823
1.07161
1.07887
1.08298
1.08986
1.09402
1.10151
1.10646
1.1147
1.12077
1.1297
1.13622
1.14559
1.15339
1.16359
1.17224
1.18308
1.19245
1.20395
1.21426
1.22601
1.23533
1.24497
1.2516
1.25121
1.2564
1.24421
1.2284
1.18838
1.14566
1.08557
1.03672
0.981093
0.943865
0.894896
0.855825
0.808801
0.789491
0.745315
0.733622
0.704504
0.69491
0.681578
0.673191
0.666838
0.663039
0.663415
0.661546
0.661749
0.66056
0.662047
0.662898
0.664958
0.666464
0.66836
0.669382
0.670734
0.671038
0.672477
0.673633
0.675581
0.677316
0.678482
0.678353
0.677513
0.675804
0.67654
0.678745
0.68096
0.682782
0.684247
0.686313
0.689327
0.692368
0.692752
0.691214
0.687649
0.68555
0.683308
0.682329
0.683397
0.680505
0.679629
0.676555
0.67679
0.671295
0.670683
0.666697
0.665173
0.662753
0.662921
0.657805
0.660036
0.657908
0.648468
0.650482
0.643099
0.644512
0.635268
0.634809
0.629972
0.625462
0.630783
0.645416
0.711925
0.798095
0.821336
0.826448
0.830869
0.835845
0.840629
0.845068
0.84952
0.854118
0.857582
0.861137
0.865282
0.869962
0.873693
0.877161
0.88078
0.884762
0.888507
0.892142
0.895669
0.899154
0.902522
0.905822
0.908992
0.912111
0.91502
0.917927
0.920641
0.923366
0.925895
0.928411
0.930761
0.933084
0.935281
0.937426
0.93951
0.941464
0.943464
0.945193
0.947126
0.948598
0.950514
0.951722
0.953667
0.954571
0.956569
0.957125
0.95923
0.959402
0.961669
0.961416
0.963892
0.963192
0.96592
0.964756
0.967785
0.966139
0.969508
0.967355
0.971091
0.968422
0.972553
0.969381
0.973911
0.970275
0.975165
0.971135
0.976331
0.972017
0.977433
0.972978
0.978528
0.974074
0.979681
0.975382
0.980938
0.976927
0.982201
0.978746
0.98378
0.981111
0.987852
0.986979
0.996846
1.00102
1.01716
1.02111
1.03788
1.03711
1.04467
1.03038
1.03517
1.01975
1.02821
1.01253
1.02164
1.00519
1.01667
1.00144
1.00011
0.974401
1.00167
0.98238
1.00621
0.991626
0.958857
0.99629
0.99558
0.959273
0.991299
1.00663
0.982305
1.00211
0.974339
1.0005
1.00102
1.01641
1.00579
1.02107
1.01219
1.02805
1.01988
1.03376
1.03094
1.04466
1.03952
1.05119
1.04684
1.05648
1.04819
1.05487
1.04466
1.0495
1.04274
1.04629
1.0419
1.04569
1.04245
1.04639
1.04369
1.04755
1.04529
1.04896
1.04705
1.05057
1.04893
1.05235
1.05091
1.05413
1.05288
1.05582
1.05496
1.05755
1.05682
1.05937
1.05853
1.06074
1.0607
1.06175
1.06174
1.06396
1.06343
1.06408
1.06462
1.06604
1.0661
1.06704
1.06695
1.06765
1.06771
1.06837
1.06817
1.06861
1.06849
1.06841
1.06835
1.06849
1.06824
1.06799
1.06772
1.06737
1.06692
1.06628
1.06581
1.06521
1.06469
1.06397
1.06334
1.06255
1.06179
1.06076
1.05971
1.05856
1.05738
1.05615
1.05492
1.05363
1.05219
1.05067
1.0491
1.04734
1.04549
1.0434
1.04133
1.03911
1.03679
1.03423
1.03157
1.02878
1.02587
1.02145
1.01705
1.01502
1.01268
1.00845
1.00426
0.999614
0.994818
0.990025
0.985285
0.979894
0.97523
0.97038
0.965933
0.961061
0.957141
0.952964
0.949726
0.946519
0.945765
0.943892
0.946446
0.947378
0.948563
0.952655
0.954653
0.958028
0.963889
0.965097
0.972521
0.973065
0.98007
0.980972
0.988055
0.989536
0.996688