/*--------------------------------*- C++ -*----------------------------------*\
| =========                 |                                                 |
| \\      /  F ield         | OpenFOAM: The Open Source CFD Toolbox           |
|  \\    /   O peration     | Version:  v2006                                 |
|   \\  /    A nd           | Website:  www.openfoam.com                      |
|    \\/     M anipulation  |                                                 |
\*---------------------------------------------------------------------------*/
FoamFile
{
    version     2.0;
    format      ascii;
    class       volScalarField;
    location    "185";
    object      rhoMean;
}
// * * * * * * * * * * * * * * * * * * * * * * * * * * * * * * * * * * * * * //

dimensions      [1 -3 0 0 0 0 0];


internalField   nonuniform List<scalar> 
93840
(
1.01359
1.01278
1.01417
1.01225
1.0135
1.01296
1.01314
1.01275
1.01352
1.01451
1.01633
1.01798
1.02048
1.02297
1.02656
1.03025
1.03446
1.03805
1.04146
1.0425
1.04096
1.03648
1.03188
1.02601
1.02217
1.01907
1.01534
1.01323
1.01209
1.01286
1.00814
1.02059
1.00683
1.01651
1.01728
1.02256
1.02281
1.02673
1.02723
1.03041
1.0309
1.03323
1.03384
1.03575
1.03646
1.03826
1.03909
1.04052
1.04119
1.0426
1.04324
1.0443
1.04504
1.04647
1.04677
1.0471
1.0474
1.0482
1.04899
1.04975
1.04982
1.05042
1.05076
1.05087
1.05078
1.05097
1.05072
1.05051
1.05024
1.05
1.04946
1.0491
1.0484
1.04771
1.04692
1.04611
1.04513
1.04418
1.04291
1.04174
1.04046
1.03918
1.03768
1.036
1.03418
1.03237
1.03031
1.02833
1.02616
1.02391
1.02121
1.01837
1.01539
1.01224
1.00892
1.00534
1.00163
0.997781
0.993725
0.989361
0.984839
0.980265
0.975597
0.968585
0.961444
0.957997
0.954831
0.94877
0.942269
0.935763
0.929359
0.92295
0.916772
0.909525
0.903007
0.896467
0.890772
0.884062
0.879103
0.873704
0.870108
0.865687
0.865173
0.863202
0.866551
0.868984
0.870263
0.878209
0.879149
0.885204
0.890713
0.896358
0.902503
0.907127
0.912284
0.917669
0.923787
0.92855
0.933884
0.938082
0.942507
0.946964
0.952435
0.956933
0.961413
0.96569
0.969957
0.974124
0.97897
0.983987
0.988815
0.993586
0.998574
1.00375
1.00913
1.01446
1.02012
1.02583
1.03228
1.03861
1.04434
1.04971
1.05613
1.06281
1.07005
1.07769
1.08627
1.0945
1.10256
1.111
1.12147
1.13258
1.14421
1.15454
1.16728
1.18107
1.19672
1.21463
1.23458
1.25273
1.2696
1.28907
1.28207
1.25134
1.17345
1.10026
0.98996
0.933459
0.900371
0.886296
0.833177
0.796455
0.770962
0.75281
0.738296
0.738334
0.735002
0.733974
0.734602
0.735982
0.739819
0.742158
0.743319
0.744004
0.744548
0.745536
0.745747
0.745233
0.744447
0.742658
0.739307
0.735819
0.73311
0.730187
0.72834
0.727229
0.725846
0.72392
0.72214
0.71924
0.714338
0.712154
0.712883
0.71418
0.716457
0.718905
0.721089
0.722676
0.723726
0.723696
0.720529
0.714704
0.712855
0.710563
0.711158
0.713192
0.715426
0.717769
0.719966
0.721613
0.722984
0.723965
0.725439
0.726796
0.729543
0.732077
0.73472
0.736339
0.741619
0.741479
0.7418
0.746381
0.74881
0.752554
0.756196
0.76119
0.765409
0.770474
0.776321
0.783294
0.790188
0.797629
0.804101
0.810868
0.817248
0.823918
0.829611
0.836015
0.844325
0.852573
0.856298
0.859737
0.866033
0.873516
0.877957
0.881176
0.885418
0.891079
0.896471
0.901475
0.905891
0.910592
0.914605
0.918168
0.922191
0.925649
0.928964
0.932289
0.935377
0.938473
0.94134
0.944023
0.946487
0.949404
0.952004
0.955004
0.957136
0.959046
0.961233
0.963345
0.965
0.967099
0.967729
0.969462
0.970625
0.972121
0.9744
0.973382
0.974181
0.974794
0.975518
0.976045
0.976406
0.976906
0.977524
0.978191
0.979479
0.979636
0.980607
0.981297
0.982966
0.983315
0.98438
0.983906
0.98464
0.983789
0.984244
0.982441
0.982254
0.97952
0.979578
0.975951
0.976622
0.972543
0.973687
0.971494
0.974288
0.981631
0.98969
0.998582
1.00688
1.01453
1.0213
1.02395
1.02545
1.03059
1.03593
1.04061
1.04242
1.04144
1.03806
1.03436
1.03014
1.02647
1.0229
1.02045
1.01795
1.01625
1.01444
1.01344
1.01259
1.01292
1.01274
1.01331
1.0121
1.014
1.01262
1.01341
1.0134
1.01262
1.01399
1.0121
1.01331
1.01275
1.01293
1.0126
1.01344
1.01444
1.01626
1.01795
1.02047
1.02293
1.02651
1.03019
1.03443
1.03815
1.0417
1.04326
1.04276
1.03934
1.03473
1.02924
1.02559
1.02034
1.01453
1.00941
1.00669
1.00571
1.00594
1.00664
1.01063
1.01287
1.01607
1.01827
1.02049
1.02261
1.02427
1.02629
1.02753
1.02929
1.03032
1.0319
1.03282
1.03435
1.03522
1.03657
1.03728
1.03858
1.03923
1.04032
1.04097
1.04218
1.04257
1.04307
1.0434
1.04414
1.04477
1.04552
1.04567
1.04623
1.04652
1.0467
1.04666
1.04684
1.04665
1.04649
1.04623
1.04602
1.04554
1.04522
1.04459
1.04398
1.04325
1.04251
1.04158
1.04071
1.03953
1.03845
1.03724
1.03602
1.03463
1.03307
1.03136
1.02965
1.02772
1.02584
1.0238
1.02167
1.01913
1.01646
1.01367
1.01074
1.00763
1.00429
1.00084
0.997276
0.993534
0.989534
0.985391
0.981181
0.976918
0.97054
0.963957
0.960682
0.957739
0.952258
0.946352
0.94041
0.934562
0.928721
0.923114
0.916546
0.91066
0.904744
0.899617
0.893587
0.889171
0.88434
0.881145
0.877228
0.87691
0.875251
0.878505
0.880987
0.882307
0.889898
0.891063
0.896843
0.902207
0.907676
0.913639
0.918228
0.923265
0.9285
0.934414
0.939122
0.944319
0.948516
0.95288
0.957258
0.962533
0.96698
0.971378
0.975604
0.979801
0.983907
0.988578
0.993418
0.998092
1.00272
1.00752
1.01247
1.0176
1.02268
1.02804
1.03342
1.03937
1.04521
1.05058
1.05562
1.06146
1.0675
1.07404
1.08088
1.08849
1.09595
1.10356
1.11158
1.12126
1.13143
1.14244
1.15299
1.16567
1.17927
1.19446
1.2105
1.22681
1.24255
1.2547
1.27016
1.26325
1.23768
1.19346
1.13789
1.05808
0.993431
0.952312
0.924783
0.877882
0.841859
0.813756
0.79371
0.777489
0.775026
0.770569
0.76847
0.76842
0.768857
0.771594
0.773242
0.773664
0.773503
0.773117
0.773089
0.772454
0.771132
0.769569
0.767086
0.763162
0.759205
0.7561
0.752802
0.750576
0.74908
0.747393
0.745161
0.743115
0.740001
0.734864
0.732365
0.732761
0.733718
0.735591
0.737594
0.739327
0.740453
0.741051
0.740626
0.737229
0.731376
0.72936
0.726944
0.727282
0.728974
0.730858
0.732826
0.734642
0.735934
0.736966
0.737654
0.738837
0.739938
0.742354
0.744559
0.746885
0.748245
0.752957
0.752708
0.752912
0.757074
0.75928
0.762715
0.766038
0.770629
0.774522
0.779218
0.784641
0.791093
0.797484
0.804378
0.810341
0.8166
0.822486
0.828647
0.833956
0.83994
0.847543
0.855066
0.858508
0.86188
0.867771
0.87471
0.878878
0.882008
0.885997
0.891211
0.896187
0.900945
0.905218
0.909304
0.913181
0.9168
0.920356
0.923729
0.926848
0.929982
0.932913
0.935828
0.938512
0.941101
0.94346
0.945979
0.948513
0.951029
0.952995
0.954994
0.956804
0.958717
0.960205
0.961887
0.963275
0.964275
0.965714
0.966567
0.968016
0.968696
0.969438
0.969907
0.970469
0.970812
0.971307
0.971403
0.971885
0.971879
0.972579
0.972729
0.973618
0.973836
0.975028
0.975138
0.976182
0.975851
0.977033
0.976448
0.977417
0.976106
0.976795
0.974511
0.974937
0.971546
0.972665
0.968103
0.971869
0.965263
0.976065
0.974756
0.980168
0.984761
0.992272
1.00136
1.01092
1.01867
1.02268
1.02696
1.03221
1.03832
1.0414
1.04116
1.03796
1.0344
1.03021
1.02653
1.02295
1.02046
1.01798
1.01633
1.01452
1.01352
1.01275
1.01313
1.01295
1.0135
1.01225
1.01417
1.01278
1.01359
1.0136
1.01279
1.01418
1.01226
1.0135
1.01297
1.01315
1.01277
1.01352
1.01451
1.01633
1.018
1.0205
1.02301
1.02661
1.03032
1.03454
1.03818
1.04177
1.04352
1.04356
1.04114
1.03773
1.03182
1.02795
1.02339
1.01746
1.01349
1.01081
1.01074
1.01028
1.0142
1.00886
1.01617
1.01409
1.01902
1.01857
1.02212
1.02239
1.02513
1.02566
1.02777
1.02843
1.03019
1.03091
1.03251
1.03327
1.03464
1.03531
1.0366
1.03722
1.03832
1.03896
1.04013
1.04052
1.04103
1.0414
1.04214
1.04279
1.04352
1.04371
1.04429
1.04462
1.04483
1.04483
1.04503
1.04487
1.04476
1.04455
1.04438
1.04396
1.04368
1.04312
1.04256
1.0419
1.04122
1.04037
1.03956
1.03845
1.03745
1.03631
1.03516
1.03384
1.03236
1.03073
1.02915
1.02733
1.02557
1.02364
1.02164
1.01924
1.01674
1.01411
1.01136
1.00844
1.00531
1.00211
0.998782
0.995304
0.991592
0.987747
0.983845
0.979886
0.973882
0.967701
0.964737
0.962086
0.957004
0.951527
0.946022
0.940598
0.935196
0.930001
0.923891
0.918415
0.912914
0.90813
0.90246
0.898328
0.893743
0.890702
0.886907
0.886619
0.885031
0.888175
0.890656
0.8919
0.899366
0.900498
0.906108
0.911411
0.916682
0.922564
0.926986
0.93193
0.936999
0.942785
0.947335
0.952394
0.956434
0.96065
0.964854
0.969935
0.974187
0.978393
0.982412
0.986403
0.990292
0.994729
0.999302
1.00372
1.00807
1.01258
1.01721
1.02202
1.02675
1.03179
1.03682
1.04244
1.04794
1.05307
1.05792
1.06362
1.06954
1.07606
1.0829
1.09055
1.09808
1.10585
1.11402
1.12381
1.13409
1.14526
1.15599
1.16877
1.18245
1.1978
1.21452
1.23205
1.24955
1.26293
1.27973
1.27039
1.24417
1.19587
1.14093
1.06228
1.00252
0.956894
0.930686
0.884016
0.849162
0.820754
0.800323
0.783449
0.780451
0.776676
0.774675
0.775299
0.77636
0.77969
0.782956
0.784777
0.785823
0.786497
0.787438
0.787738
0.787175
0.786252
0.784279
0.780625
0.776714
0.773713
0.770384
0.768135
0.766584
0.764891
0.762638
0.760544
0.757371
0.752157
0.749425
0.749708
0.750599
0.752365
0.754268
0.755828
0.756759
0.757099
0.756478
0.752765
0.746613
0.744351
0.741725
0.741878
0.743412
0.74511
0.74687
0.748436
0.749478
0.750208
0.750634
0.751519
0.752374
0.754496
0.756457
0.758494
0.759568
0.763991
0.763498
0.76346
0.767339
0.769345
0.772503
0.775569
0.779861
0.783484
0.787878
0.792987
0.799063
0.805106
0.811643
0.817231
0.823083
0.828591
0.834366
0.839323
0.844936
0.852107
0.85924
0.862403
0.865504
0.871058
0.87768
0.881626
0.88452
0.888278
0.893199
0.897927
0.902452
0.906634
0.910421
0.914059
0.917559
0.920945
0.924217
0.927224
0.930196
0.932995
0.935752
0.938285
0.940715
0.943
0.945297
0.947704
0.950057
0.951783
0.953484
0.955349
0.957039
0.958442
0.959762
0.96117
0.962307
0.963679
0.964483
0.965547
0.966531
0.967421
0.968036
0.968647
0.968986
0.969499
0.969616
0.970061
0.970028
0.97051
0.970585
0.971363
0.971509
0.972435
0.972455
0.973507
0.97348
0.974751
0.974443
0.975613
0.974686
0.975498
0.973705
0.973945
0.971298
0.971345
0.96846
0.969429
0.968133
0.971607
0.972334
0.976242
0.980307
0.986656
0.995357
1.00544
1.01414
1.02091
1.0252
1.03066
1.03696
1.04074
1.0409
1.03789
1.03427
1.03006
1.02642
1.02286
1.02043
1.01794
1.01626
1.01445
1.01344
1.01259
1.01292
1.01275
1.01332
1.01211
1.014
1.01263
1.01342
1.01339
1.01261
1.01398
1.01208
1.0133
1.01273
1.01292
1.01258
1.01342
1.01443
1.01624
1.01795
1.02047
1.02295
1.02654
1.03023
1.03448
1.03822
1.04187
1.04385
1.04446
1.04251
1.03938
1.03442
1.03035
1.0258
1.01995
1.01517
1.01158
1.01043
1.00981
1.01108
1.01247
1.01394
1.01581
1.01761
1.01928
1.0211
1.02252
1.02425
1.02546
1.027
1.02807
1.02946
1.03045
1.03174
1.03267
1.03383
1.03465
1.03575
1.03649
1.03745
1.03815
1.03911
1.03963
1.04016
1.04062
1.04125
1.04187
1.04251
1.04281
1.04332
1.04367
1.04388
1.04395
1.04413
1.04406
1.04396
1.04381
1.04365
1.0433
1.04305
1.04255
1.04206
1.04147
1.04086
1.04008
1.03935
1.03834
1.03743
1.03637
1.03531
1.03408
1.0327
1.03115
1.02962
1.02786
1.02617
1.0243
1.02239
1.02011
1.01774
1.01525
1.01266
1.00992
1.00698
1.00398
1.00086
0.997603
0.994126
0.99052
0.986853
0.983131
0.977506
0.971697
0.968905
0.966412
0.961666
0.95655
0.951379
0.946265
0.941176
0.936269
0.93047
0.925278
0.920027
0.915415
0.909972
0.905939
0.901497
0.898388
0.894737
0.894317
0.892765
0.895736
0.898127
0.899143
0.906483
0.907452
0.912949
0.918055
0.923187
0.928909
0.933224
0.938048
0.942956
0.948555
0.952966
0.957847
0.961758
0.965811
0.969841
0.974643
0.978685
0.982618
0.986386
0.990055
0.993662
0.997693
1.0019
1.00592
1.00996
1.0141
1.01845
1.02294
1.02748
1.03229
1.0372
1.0426
1.04799
1.0531
1.05808
1.0638
1.0698
1.07635
1.08327
1.09091
1.09859
1.10665
1.11517
1.12506
1.13536
1.14658
1.15766
1.17056
1.18406
1.19905
1.21424
1.23018
1.24346
1.25543
1.26962
1.26449
1.24634
1.19991
1.15409
1.09117
1.03244
0.986401
0.952653
0.908103
0.871975
0.841034
0.818087
0.798535
0.792229
0.786155
0.783164
0.782495
0.783146
0.785751
0.788602
0.790256
0.791375
0.792209
0.793356
0.794198
0.794294
0.794007
0.792769
0.789937
0.786894
0.784649
0.782033
0.780313
0.779244
0.777961
0.775969
0.774088
0.771107
0.765739
0.762943
0.763186
0.764086
0.765834
0.767734
0.76924
0.770136
0.770325
0.769586
0.765752
0.759457
0.756989
0.75421
0.754159
0.755541
0.757103
0.758733
0.760131
0.760989
0.761516
0.761728
0.762419
0.763064
0.76498
0.766708
0.768564
0.769392
0.773531
0.772899
0.772686
0.776244
0.778104
0.781056
0.783911
0.787963
0.791386
0.79557
0.800404
0.806222
0.812005
0.818266
0.823576
0.82912
0.834329
0.839799
0.844515
0.849849
0.856603
0.863284
0.866291
0.869265
0.874548
0.880831
0.884644
0.88742
0.890944
0.895499
0.899983
0.904318
0.908437
0.912097
0.915533
0.918907
0.922161
0.925306
0.92823
0.931081
0.933772
0.936384
0.938795
0.941087
0.943318
0.945461
0.947664
0.949698
0.951063
0.952788
0.954303
0.955671
0.9571
0.958203
0.959529
0.960866
0.962205
0.963158
0.964207
0.965196
0.966193
0.966823
0.967514
0.967823
0.968334
0.968451
0.968872
0.968812
0.969213
0.969135
0.969813
0.969843
0.970711
0.970737
0.971868
0.971882
0.973167
0.972877
0.974012
0.973162
0.973973
0.972227
0.972707
0.969917
0.970759
0.96718
0.969646
0.966438
0.971099
0.970267
0.974358
0.97704
0.981548
0.988512
0.997369
1.00635
1.01604
1.02214
1.02754
1.03499
1.03974
1.04061
1.0378
1.03433
1.03015
1.02648
1.02291
1.02044
1.01796
1.01633
1.01451
1.01351
1.01274
1.01312
1.01294
1.01349
1.01225
1.01416
1.01277
1.01358
1.01361
1.0128
1.01418
1.01227
1.01351
1.01298
1.01316
1.01278
1.01353
1.01452
1.01634
1.01801
1.02053
1.02305
1.02666
1.03037
1.0346
1.03825
1.04191
1.04401
1.04505
1.04415
1.04175
1.03676
1.03278
1.02851
1.02307
1.01945
1.01658
1.01598
1.01474
1.01661
1.01447
1.01833
1.01714
1.02056
1.02029
1.02304
1.02335
1.02554
1.02615
1.02791
1.02865
1.03012
1.03093
1.03224
1.03307
1.03421
1.03497
1.03603
1.03674
1.03766
1.03834
1.03924
1.03974
1.04024
1.04071
1.0413
1.04191
1.04248
1.04279
1.04323
1.04358
1.04374
1.04384
1.04397
1.04393
1.0438
1.04369
1.04351
1.0432
1.04292
1.04248
1.04199
1.04145
1.04086
1.04014
1.03943
1.03851
1.03763
1.03664
1.03561
1.03443
1.0331
1.03163
1.03019
1.02854
1.02696
1.02523
1.02343
1.02133
1.01914
1.01685
1.01444
1.01189
1.00917
1.00638
1.00347
1.00044
0.997202
0.993846
0.990429
0.986932
0.981626
0.976169
0.973613
0.971294
0.966838
0.96204
0.957182
0.952338
0.947527
0.942821
0.937269
0.932249
0.927151
0.922596
0.91721
0.913193
0.90869
0.905509
0.901694
0.901189
0.899542
0.902329
0.904597
0.905524
0.912673
0.913512
0.918892
0.923797
0.928744
0.934273
0.938385
0.943042
0.947708
0.953087
0.957222
0.961853
0.965455
0.969245
0.972942
0.977436
0.981139
0.984814
0.988297
0.991774
0.995184
0.99909
1.00315
1.00712
1.01109
1.01525
1.01957
1.02409
1.02863
1.03349
1.0384
1.04383
1.0492
1.05438
1.0594
1.06518
1.07118
1.07776
1.08464
1.09225
1.09983
1.10786
1.11623
1.126
1.13608
1.14722
1.1581
1.17089
1.18412
1.19907
1.21418
1.23014
1.24439
1.25427
1.26636
1.2566
1.23803
1.19659
1.15249
1.08772
1.0338
0.985661
0.95391
0.909662
0.875199
0.844515
0.821695
0.801982
0.795799
0.7894
0.785638
0.784542
0.784421
0.786368
0.788651
0.790224
0.791058
0.791851
0.792771
0.793621
0.793728
0.793639
0.792629
0.790058
0.787123
0.785346
0.783114
0.782015
0.781554
0.781177
0.780102
0.779179
0.777156
0.772872
0.77059
0.771532
0.773071
0.775455
0.777901
0.779997
0.781293
0.781717
0.781217
0.777461
0.771093
0.768601
0.765769
0.765686
0.767097
0.768683
0.77033
0.771714
0.772545
0.772971
0.773102
0.773641
0.774174
0.775902
0.777502
0.779251
0.779842
0.783836
0.783055
0.782546
0.785854
0.787558
0.790265
0.792891
0.796689
0.799866
0.803736
0.808266
0.813769
0.819236
0.825192
0.830213
0.835446
0.840345
0.845538
0.849983
0.855051
0.861468
0.867902
0.870696
0.873414
0.878312
0.884266
0.888062
0.890915
0.894231
0.898325
0.902378
0.906436
0.910457
0.914089
0.917407
0.920653
0.923765
0.926771
0.929614
0.932352
0.934951
0.937439
0.939748
0.941922
0.944074
0.946053
0.947914
0.94962
0.951147
0.952728
0.954059
0.955256
0.956542
0.957594
0.958702
0.959892
0.961074
0.962096
0.963128
0.964104
0.96522
0.965916
0.966596
0.966933
0.96741
0.967557
0.967964
0.967928
0.968315
0.968215
0.968756
0.968754
0.969608
0.969678
0.970749
0.970823
0.972029
0.971858
0.972948
0.972294
0.973009
0.97165
0.971826
0.969802
0.969889
0.967731
0.968568
0.967322
0.96966
0.969633
0.972639
0.974839
0.979676
0.985962
0.994246
1.00184
1.01198
1.01949
1.02548
1.0332
1.03882
1.04029
1.03771
1.03419
1.03001
1.02638
1.02284
1.02042
1.01794
1.01626
1.01446
1.01345
1.01259
1.01292
1.01275
1.01333
1.01212
1.014
1.01264
1.01342
1.01339
1.0126
1.01397
1.01207
1.01329
1.01273
1.01292
1.01258
1.01342
1.01442
1.01624
1.01795
1.02049
1.02298
1.02658
1.03028
1.03453
1.03829
1.04199
1.04423
1.04563
1.0451
1.04356
1.0395
1.03565
1.03157
1.02617
1.02214
1.01905
1.01765
1.017
1.01733
1.01806
1.01884
1.02011
1.02127
1.02257
1.0239
1.02512
1.02647
1.02759
1.02886
1.02989
1.03106
1.03203
1.03312
1.03403
1.03503
1.03586
1.03679
1.03755
1.03837
1.03908
1.03985
1.04043
1.04092
1.04146
1.04197
1.04257
1.04308
1.04346
1.04385
1.04422
1.04438
1.04454
1.04463
1.04465
1.04455
1.04448
1.04431
1.04407
1.0438
1.04342
1.04296
1.04248
1.04191
1.04127
1.0406
1.03976
1.03894
1.03804
1.0371
1.03603
1.03482
1.03348
1.03214
1.03059
1.02908
1.02741
1.02572
1.02372
1.02165
1.01949
1.01725
1.01489
1.01238
1.0098
1.00713
1.00435
1.00137
0.998274
0.995106
0.99186
0.986914
0.981833
0.979443
0.977232
0.973025
0.968471
0.963771
0.959043
0.954294
0.949597
0.944031
0.938974
0.933783
0.92905
0.923566
0.919329
0.914705
0.911174
0.907339
0.906535
0.904756
0.90732
0.9093
0.90994
0.916844
0.917413
0.922618
0.927167
0.931926
0.937096
0.941022
0.945357
0.949769
0.954781
0.958697
0.963035
0.966489
0.970094
0.973691
0.977988
0.981646
0.985242
0.98874
0.992187
0.99566
0.999522
1.00361
1.00756
1.0116
1.01576
1.02013
1.02465
1.02926
1.03413
1.03911
1.0445
1.0499
1.05517
1.06036
1.06622
1.07231
1.07899
1.08594
1.09362
1.10131
1.10962
1.11817
1.12808
1.13804
1.14924
1.16003
1.17278
1.18525
1.19958
1.2128
1.22722
1.23936
1.24858
1.26095
1.25339
1.23869
1.1995
1.16133
1.10865
1.05678
1.01126
0.974578
0.932795
0.896644
0.864834
0.839321
0.817699
0.807072
0.79899
0.793545
0.791333
0.790491
0.792087
0.793955
0.79521
0.795685
0.796189
0.796791
0.797477
0.797349
0.797076
0.795799
0.79325
0.790327
0.788533
0.786256
0.785055
0.784515
0.78418
0.78313
0.78239
0.780641
0.776435
0.774414
0.775688
0.777764
0.780619
0.783733
0.786404
0.788307
0.789355
0.789481
0.786227
0.780258
0.777927
0.775315
0.775194
0.776687
0.77836
0.780132
0.781641
0.782554
0.78308
0.783217
0.783883
0.784379
0.786216
0.787819
0.789728
0.790218
0.794204
0.793505
0.793015
0.796141
0.797933
0.800579
0.803181
0.806879
0.810051
0.813783
0.818152
0.82344
0.828697
0.834274
0.838881
0.843612
0.848017
0.852658
0.856683
0.861208
0.867075
0.872966
0.87569
0.878249
0.882803
0.888264
0.891615
0.894424
0.897985
0.901906
0.905509
0.909165
0.912961
0.916483
0.91971
0.922842
0.925853
0.928709
0.931427
0.934042
0.936548
0.938916
0.941113
0.943182
0.945214
0.947097
0.948728
0.950276
0.95176
0.953091
0.954264
0.955366
0.956519
0.957515
0.958488
0.959487
0.960473
0.961435
0.962348
0.963219
0.964415
0.965223
0.965975
0.966312
0.966796
0.966904
0.967313
0.967251
0.967654
0.967523
0.968067
0.968008
0.968854
0.968868
0.969905
0.969871
0.971049
0.970779
0.97189
0.971158
0.972033
0.970566
0.971169
0.968949
0.969795
0.967208
0.968971
0.966781
0.969478
0.968671
0.97192
0.973473
0.977044
0.98232
0.989569
0.996733
1.00664
1.01543
1.02177
1.03082
1.03744
1.03979
1.03758
1.03425
1.03008
1.02644
1.02288
1.02041
1.01795
1.01632
1.01451
1.01351
1.01273
1.01311
1.01294
1.01349
1.01224
1.01415
1.01276
1.01358
1.01362
1.01281
1.01418
1.01228
1.01351
1.013
1.01318
1.01279
1.01354
1.01452
1.01634
1.01802
1.02055
1.02308
1.0267
1.03042
1.03465
1.03831
1.04202
1.04432
1.04607
1.04638
1.04533
1.04159
1.03789
1.03407
1.02967
1.02649
1.02459
1.02358
1.02228
1.0232
1.02195
1.02411
1.02334
1.02565
1.02539
1.02749
1.02765
1.02945
1.02988
1.03139
1.03198
1.03327
1.03395
1.03508
1.03579
1.0368
1.03748
1.0384
1.03904
1.03986
1.04047
1.04122
1.04172
1.04221
1.04269
1.04321
1.04374
1.04424
1.04458
1.04498
1.04532
1.04549
1.04565
1.04577
1.0458
1.04572
1.04569
1.04553
1.04534
1.0451
1.04479
1.04435
1.04394
1.0434
1.04283
1.04219
1.04143
1.04063
1.03981
1.03891
1.03795
1.03683
1.03565
1.03445
1.03309
1.03175
1.03028
1.02874
1.02691
1.02502
1.02303
1.02096
1.01878
1.01646
1.01408
1.01162
1.00902
1.00625
1.00333
1.00033
0.997173
0.992389
0.987483
0.985157
0.982913
0.978732
0.974192
0.969485
0.964697
0.959873
0.95506
0.949429
0.944255
0.938893
0.934001
0.928279
0.923987
0.919046
0.915437
0.911178
0.910409
0.908252
0.910829
0.912294
0.91307
0.919391
0.919993
0.924796
0.929251
0.933621
0.938724
0.942341
0.946698
0.950852
0.955898
0.959614
0.964037
0.967331
0.971073
0.974525
0.978932
0.982444
0.98619
0.989557
0.993168
0.996523
1.00054
1.00448
1.0086
1.01251
1.01685
1.02107
1.02578
1.03024
1.0353
1.04011
1.04569
1.05089
1.05639
1.06142
1.06753
1.0734
1.08033
1.087
1.09489
1.10224
1.11076
1.11891
1.12896
1.13847
1.14983
1.16019
1.17298
1.18505
1.19918
1.21219
1.22564
1.23749
1.24538
1.25587
1.24544
1.22984
1.19342
1.15735
1.10367
1.05667
1.00898
0.975479
0.932817
0.899383
0.86712
0.843128
0.820897
0.812019
0.802695
0.797559
0.794512
0.793222
0.793457
0.794824
0.795643
0.796148
0.79617
0.796798
0.797056
0.797177
0.796628
0.795715
0.792766
0.789916
0.787767
0.785661
0.784132
0.783799
0.783186
0.782505
0.78144
0.780067
0.775791
0.773833
0.774817
0.777205
0.780072
0.783583
0.78652
0.788893
0.790337
0.791156
0.788533
0.783251
0.781531
0.779681
0.780115
0.782347
0.784599
0.786925
0.788875
0.790145
0.790912
0.791233
0.791966
0.792577
0.794467
0.796138
0.798171
0.798588
0.802597
0.802148
0.80142
0.804649
0.806454
0.80917
0.81176
0.81548
0.818743
0.822484
0.826924
0.832255
0.837609
0.843226
0.84784
0.852462
0.856711
0.861086
0.864783
0.868884
0.874045
0.879388
0.881651
0.883962
0.888071
0.893201
0.896274
0.898473
0.901714
0.905772
0.909206
0.912444
0.91596
0.919324
0.922427
0.925413
0.928271
0.930988
0.933595
0.936091
0.938497
0.940757
0.942821
0.944757
0.946655
0.948416
0.949949
0.951381
0.952749
0.953909
0.954897
0.955863
0.956895
0.957795
0.958656
0.959531
0.960373
0.961167
0.961976
0.962718
0.963756
0.964547
0.965326
0.965711
0.96625
0.966399
0.966802
0.966776
0.967171
0.967086
0.967599
0.967568
0.96833
0.968372
0.969302
0.969278
0.970302
0.970108
0.97104
0.970511
0.971181
0.970151
0.970444
0.96898
0.969197
0.96767
0.968386
0.967305
0.968689
0.968562
0.970953
0.972634
0.976032
0.980541
0.987035
0.994104
1.00326
1.01203
1.01892
1.02851
1.03615
1.03933
1.03743
1.03408
1.02995
1.02633
1.0228
1.0204
1.01794
1.01626
1.01446
1.01345
1.01259
1.01292
1.01275
1.01333
1.01213
1.01401
1.01264
1.01343
1.01338
1.01259
1.01396
1.01206
1.01328
1.01273
1.01292
1.01258
1.01341
1.01441
1.01623
1.01795
1.0205
1.023
1.02661
1.03033
1.03459
1.03835
1.04207
1.04444
1.04632
1.04694
1.04689
1.04404
1.04064
1.0367
1.03263
1.0292
1.02727
1.02621
1.02569
1.02572
1.02605
1.02654
1.02731
1.02813
1.02901
1.03005
1.03091
1.03203
1.03286
1.03396
1.03474
1.03578
1.03653
1.0375
1.0382
1.03909
1.03973
1.04055
1.04114
1.04186
1.04242
1.04306
1.04354
1.04399
1.04445
1.04487
1.04536
1.04576
1.04612
1.04641
1.04675
1.04686
1.04705
1.04708
1.04715
1.04702
1.04701
1.04681
1.04666
1.04638
1.04612
1.04568
1.04534
1.0448
1.04429
1.04366
1.04296
1.04217
1.04139
1.04049
1.03957
1.03845
1.03734
1.03616
1.03494
1.03372
1.03247
1.03115
1.02964
1.02801
1.02633
1.02453
1.02264
1.02058
1.01843
1.01617
1.01374
1.0111
1.00829
1.00536
1.00225
0.997566
0.99275
0.990401
0.988017
0.983762
0.979205
0.974406
0.969518
0.96458
0.959582
0.953693
0.948375
0.94276
0.937562
0.931499
0.926985
0.92169
0.917752
0.912915
0.912375
0.909287
0.912853
0.912929
0.914373
0.919746
0.920838
0.924971
0.92983
0.933617
0.939167
0.942275
0.947149
0.950762
0.956269
0.959481
0.964397
0.967224
0.971499
0.974472
0.979334
0.982373
0.986625
0.989542
0.993666
0.996598
1.00109
1.00457
1.00918
1.01267
1.01749
1.0213
1.02647
1.03054
1.03606
1.04049
1.04649
1.0513
1.05729
1.06208
1.06865
1.07425
1.0816
1.08803
1.09628
1.10348
1.11241
1.12052
1.13077
1.14013
1.15144
1.16174
1.17415
1.18581
1.19895
1.21094
1.22309
1.23375
1.24035
1.24991
1.24208
1.22839
1.19598
1.16366
1.12002
1.07385
1.03034
0.993678
0.953458
0.918835
0.885861
0.860004
0.835794
0.823018
0.811615
0.805078
0.800084
0.798776
0.798525
0.799808
0.800178
0.800503
0.80013
0.800683
0.800607
0.800616
0.799702
0.798704
0.79562
0.793017
0.79064
0.788696
0.786842
0.786561
0.785754
0.785073
0.783931
0.78269
0.77809
0.776236
0.776975
0.779303
0.78212
0.78551
0.788334
0.79071
0.792055
0.792876
0.790425
0.785334
0.783641
0.782032
0.782516
0.785052
0.787724
0.790538
0.793004
0.794794
0.796138
0.796915
0.79819
0.799123
0.801365
0.803198
0.805507
0.806013
0.810013
0.809824
0.80915
0.812303
0.814321
0.81708
0.819703
0.823508
0.826833
0.830692
0.835153
0.840551
0.845984
0.85177
0.856511
0.861141
0.865434
0.869812
0.873441
0.877336
0.882097
0.886863
0.88886
0.890771
0.894465
0.899046
0.901991
0.904018
0.906604
0.91011
0.913376
0.91631
0.919459
0.922633
0.92561
0.928457
0.931179
0.933726
0.936194
0.938563
0.940854
0.94301
0.944953
0.946754
0.948494
0.950084
0.951526
0.952863
0.954064
0.955065
0.955893
0.956735
0.957635
0.958434
0.959233
0.96005
0.960821
0.961492
0.962159
0.96274
0.963608
0.96425
0.964973
0.965304
0.965849
0.966052
0.966509
0.966516
0.966954
0.966863
0.967428
0.967371
0.968147
0.968131
0.969068
0.968965
0.969971
0.969649
0.970603
0.969936
0.970765
0.969584
0.970274
0.968629
0.969423
0.96758
0.968823
0.967265
0.968927
0.968264
0.970655
0.97188
0.974935
0.978412
0.983693
0.990925
0.999678
1.00846
1.0146
1.02556
1.03432
1.03858
1.03726
1.03414
1.03001
1.02639
1.02284
1.02039
1.01794
1.01632
1.0145
1.01351
1.01272
1.0131
1.01293
1.01349
1.01224
1.01415
1.01276
1.01357
1.01363
1.01282
1.01419
1.01229
1.01352
1.01301
1.01319
1.0128
1.01354
1.01453
1.01634
1.01803
1.02058
1.02312
1.02675
1.03048
1.03471
1.03837
1.0421
1.0445
1.04664
1.04776
1.0479
1.04571
1.04275
1.03903
1.03588
1.03335
1.03192
1.03126
1.03033
1.03103
1.03026
1.03179
1.03126
1.03306
1.03281
1.0346
1.03461
1.03625
1.03646
1.03791
1.03828
1.03953
1.04
1.04108
1.04159
1.04253
1.04303
1.04385
1.04432
1.04502
1.04546
1.04605
1.04643
1.04683
1.04719
1.04756
1.04794
1.04828
1.04853
1.04878
1.04901
1.0491
1.0492
1.04923
1.04922
1.0491
1.04902
1.04883
1.04862
1.04836
1.04804
1.04765
1.04726
1.04678
1.04626
1.04572
1.04506
1.04441
1.04371
1.04297
1.04218
1.04129
1.04035
1.03942
1.0384
1.03743
1.03639
1.0353
1.034
1.03261
1.03113
1.02948
1.02773
1.02572
1.02364
1.02141
1.01895
1.01626
1.01336
1.0103
1.00702
1.00216
0.997313
0.994815
0.992193
0.987825
0.98314
0.978155
0.973045
0.967813
0.962494
0.956244
0.950718
0.944831
0.939325
0.933098
0.928315
0.922983
0.918756
0.914168
0.913065
0.910283
0.913698
0.913791
0.915329
0.920674
0.921714
0.926029
0.930687
0.934621
0.939966
0.94323
0.947948
0.951688
0.957012
0.960359
0.965116
0.968084
0.972234
0.975342
0.980047
0.983216
0.987345
0.990404
0.994417
0.997501
1.00187
1.00549
1.00997
1.01362
1.01832
1.02228
1.02732
1.03155
1.03694
1.04153
1.04736
1.05234
1.05818
1.06317
1.06956
1.07536
1.08248
1.08909
1.09704
1.10438
1.11297
1.12119
1.131
1.14044
1.15129
1.16164
1.17355
1.18511
1.19772
1.2093
1.22073
1.23042
1.23644
1.24472
1.23452
1.22124
1.18896
1.15898
1.11373
1.07152
1.0276
0.99304
0.953154
0.920025
0.887965
0.862676
0.839378
0.827311
0.816135
0.80909
0.804783
0.801903
0.800986
0.801123
0.801343
0.801149
0.800827
0.800757
0.800846
0.800505
0.799941
0.79864
0.795787
0.792541
0.790517
0.788019
0.78651
0.785761
0.785275
0.784334
0.783485
0.781948
0.777944
0.775396
0.776285
0.778452
0.781308
0.784701
0.787695
0.789951
0.791606
0.792239
0.790236
0.784719
0.783439
0.781415
0.782303
0.784617
0.787586
0.790423
0.793251
0.795171
0.796987
0.797989
0.799897
0.8012
0.804163
0.806448
0.809541
0.810351
0.814873
0.815452
0.814748
0.818277
0.820631
0.82354
0.826347
0.830246
0.833797
0.837705
0.842332
0.847811
0.853438
0.859332
0.86428
0.869137
0.873688
0.878313
0.882216
0.886137
0.890778
0.895421
0.897147
0.898587
0.90172
0.905855
0.908501
0.910573
0.913028
0.916017
0.918907
0.921419
0.923963
0.926708
0.929461
0.932089
0.934591
0.936955
0.939225
0.941438
0.943577
0.945626
0.947458
0.949116
0.950705
0.952136
0.953428
0.954656
0.95568
0.956538
0.957211
0.95788
0.958624
0.959318
0.960011
0.960724
0.961466
0.962106
0.962719
0.963206
0.963894
0.964381
0.964937
0.96518
0.965632
0.965864
0.966302
0.966365
0.966799
0.966747
0.967276
0.967266
0.967969
0.968027
0.968892
0.968865
0.969774
0.969599
0.970416
0.969969
0.970599
0.9698
0.970212
0.969158
0.969491
0.968362
0.968916
0.967989
0.96899
0.968722
0.970457
0.971682
0.974674
0.978007
0.982084
0.98902
0.997912
1.00645
1.0115
1.02255
1.03257
1.03789
1.03701
1.03395
1.02988
1.02628
1.02277
1.02039
1.01793
1.01627
1.01447
1.01345
1.01259
1.01292
1.01275
1.01334
1.01214
1.01401
1.01265
1.01343
1.01337
1.01258
1.01394
1.01204
1.01327
1.01272
1.01292
1.01258
1.01341
1.01441
1.01623
1.01795
1.02051
1.02303
1.02665
1.03038
1.03464
1.0384
1.04214
1.04454
1.04664
1.048
1.04899
1.04724
1.04507
1.04155
1.03828
1.03604
1.03434
1.03381
1.03325
1.03352
1.03362
1.03424
1.03473
1.03559
1.03625
1.03727
1.03797
1.03907
1.03979
1.04089
1.0416
1.04266
1.04336
1.04435
1.04502
1.04592
1.04653
1.04733
1.04788
1.04858
1.04907
1.04966
1.05006
1.05048
1.05084
1.05119
1.05153
1.05183
1.05205
1.05225
1.05244
1.0525
1.05258
1.05256
1.05255
1.05241
1.05235
1.05214
1.05197
1.05171
1.05144
1.05106
1.05073
1.05028
1.04986
1.04937
1.04883
1.04828
1.04772
1.0471
1.04648
1.04575
1.04501
1.04424
1.0434
1.04254
1.0416
1.04053
1.03928
1.03782
1.03626
1.03452
1.03263
1.03048
1.02824
1.02578
1.02314
1.02026
1.01725
1.01408
1.0107
1.0057
1.00076
0.998104
0.995189
0.990512
0.985639
0.980348
0.97497
0.969443
0.963847
0.957412
0.951644
0.94565
0.939972
0.93382
0.928878
0.923675
0.919258
0.915043
0.913577
0.911184
0.914179
0.914376
0.915686
0.921001
0.922002
0.926328
0.930844
0.934811
0.940039
0.943381
0.948047
0.951823
0.957045
0.96045
0.965142
0.968195