/*--------------------------------*- C++ -*----------------------------------*\
| =========                 |                                                 |
| \\      /  F ield         | OpenFOAM: The Open Source CFD Toolbox           |
|  \\    /   O peration     | Version:  v2006                                 |
|   \\  /    A nd           | Website:  www.openfoam.com                      |
|    \\/     M anipulation  |                                                 |
\*---------------------------------------------------------------------------*/
FoamFile
{
    version     2.0;
    format      ascii;
    class       volScalarField;
    location    "185";
    object      rhoPrime2Mean;
}
// * * * * * * * * * * * * * * * * * * * * * * * * * * * * * * * * * * * * * //

dimensions      [2 -6 0 0 0 0 0];


internalField   nonuniform List<scalar> 
93840
(
0.00022517
0.000239814
0.000269084
0.000258927
0.000312148
0.000242794
0.000277457
0.000207836
0.000217191
0.000207006
0.000263176
0.000212442
0.000264407
0.000201477
0.000235872
0.000183373
0.000203492
0.000173861
0.000203617
0.00022668
0.000331931
0.000513516
0.000879674
0.00126668
0.00165324
0.00206668
0.00268913
0.00331699
0.0037509
0.00396743
0.00407661
0.00375291
0.00327114
0.00239939
0.00209507
0.00183383
0.00169705
0.00155075
0.00146825
0.00136742
0.00131155
0.00123511
0.00119409
0.00113341
0.00110245
0.0010549
0.00103112
0.000992301
0.000971181
0.00094198
0.000923435
0.000896826
0.000884234
0.000865762
0.000852574
0.000825466
0.00081204
0.000794783
0.000791332
0.000775249
0.000763496
0.000750259
0.000745317
0.000729548
0.000721586
0.000710095
0.000702576
0.000688502
0.000682255
0.000671001
0.000662824
0.000652686
0.000645481
0.00063523
0.000629544
0.000619429
0.000611258
0.000601061
0.000592409
0.000583383
0.0005759
0.000565869
0.000558631
0.000548559
0.000539352
0.000531667
0.000523855
0.000515531
0.000508417
0.000500787
0.000492188
0.000484624
0.000480159
0.000476249
0.000474097
0.000472072
0.000472971
0.00047506
0.000478891
0.000483893
0.000489906
0.000497442
0.000505321
0.000515558
0.000524954
0.000531367
0.000539518
0.000551195
0.000563249
0.000578283
0.00059311
0.000610194
0.000626949
0.000649118
0.000670407
0.000693329
0.000716593
0.000743641
0.000769862
0.000797115
0.000824805
0.000842341
0.000848143
0.000844241
0.000826266
0.00079891
0.000802324
0.00074447
0.000736796
0.000704363
0.000670997
0.000645044
0.000614659
0.000596778
0.00057559
0.000556008
0.000533596
0.000519098
0.000502631
0.000492132
0.000480986
0.000470811
0.000456922
0.000448075
0.000439133
0.000432421
0.000425147
0.000420154
0.000411704
0.000405111
0.0003977
0.000393333
0.000386321
0.000382008
0.000374675
0.000371343
0.000364121
0.000361146
0.000352524
0.000349222
0.00034401
0.000345535
0.000339234
0.000338503
0.000330725
0.000328893
0.000317939
0.000316251
0.000308118
0.000308302
0.000293682
0.000287853
0.0002707
0.000269773
0.000248429
0.000238148
0.000212433
0.00019968
0.00015946
0.000149443
0.000124025
0.000138596
0.000201653
0.000321438
0.000597971
0.000802216
0.00116582
0.00123072
0.00110841
0.000862429
0.0010123
0.00124793
0.00144148
0.00156497
0.00200426
0.0021269
0.00214238
0.00217855
0.00221563
0.00223819
0.00220066
0.00210545
0.00198388
0.00186887
0.00176899
0.00167316
0.00157618
0.00147685
0.00138771
0.00131003
0.00129236
0.00133565
0.00137022
0.00143347
0.00149435
0.00152616
0.00155349
0.00156193
0.00157256
0.00159321
0.00171964
0.00185787
0.00195013
0.00203495
0.00208248
0.00209424
0.00206892
0.0020258
0.00193995
0.00186073
0.00178563
0.00180323
0.00185702
0.00196229
0.00203786
0.0021007
0.00213959
0.00216561
0.00216588
0.00216773
0.00216006
0.00214805
0.00211295
0.00205868
0.00198237
0.0018962
0.001811
0.00176074
0.00168954
0.0016271
0.0016363
0.00159311
0.00156386
0.00152414
0.00150841
0.00147428
0.00145274
0.00142241
0.00133754
0.00119335
0.000944465
0.000739375
0.000661228
0.0006205
0.000589324
0.000563048
0.000541253
0.000520829
0.000495036
0.000467446
0.000454573
0.000441391
0.000418521
0.000393718
0.000377687
0.000366026
0.000352992
0.000345184
0.000338427
0.000331422
0.000319331
0.000324374
0.000309719
0.000294447
0.000294662
0.000289163
0.000289144
0.000297988
0.000309217
0.000325151
0.000346143
0.000376656
0.000411412
0.000467286
0.000528025
0.000622297
0.000713024
0.000804637
0.000933317
0.00106668
0.00119203
0.00134679
0.00144133
0.0015518
0.00163496
0.00173238
0.00184698
0.00189145
0.00198068
0.00209149
0.00221291
0.00233658
0.00243476
0.00254492
0.00265024
0.00275046
0.00282358
0.00280283
0.00278174
0.00272184
0.00267124
0.00258283
0.00249685
0.00241486
0.00236289
0.00237282
0.0024232
0.00258653
0.00284753
0.00334827
0.00392836
0.00489013
0.00557194
0.00653124
0.00670771
0.00697011
0.00508694
0.00439009
0.00406848
0.00354163
0.00325328
0.0027885
0.00222396
0.0017195
0.0013124
0.000939682
0.00052909
0.000335514
0.000228072
0.000204333
0.000173752
0.000202516
0.000181765
0.000234597
0.000200369
0.000265067
0.000212753
0.000264211
0.000207367
0.000217607
0.000207909
0.000276779
0.000243532
0.000311953
0.000259742
0.000268311
0.000240597
0.000225775
0.000225791
0.00024054
0.000268301
0.000259724
0.000311758
0.000243524
0.000276697
0.000207846
0.000217274
0.000206902
0.000263577
0.000212518
0.000264825
0.000200337
0.00023461
0.000181941
0.000202563
0.000173223
0.000202679
0.000224223
0.000319883
0.000462929
0.000777032
0.00108856
0.00139889
0.00174429
0.00220563
0.00271386
0.0030919
0.00324209
0.00297387
0.00280668
0.00254245
0.00225325
0.00206332
0.0018693
0.0017462
0.00161526
0.0015317
0.00143521
0.00137884
0.00130363
0.00126258
0.00120181
0.00117117
0.00112104
0.00109896
0.00105654
0.00103921
0.0010037
0.000991128
0.00095872
0.000949893
0.000925222
0.000914413
0.000887058
0.000876327
0.000855271
0.000850149
0.000832113
0.0008226
0.000807787
0.000802147
0.0007861
0.000778156
0.000764166
0.00075745
0.000742669
0.000736398
0.000724648
0.000716069
0.000704504
0.000696949
0.000684945
0.000678591
0.000667901
0.000660464
0.00064968
0.000641656
0.000631321
0.000624952
0.000615327
0.000607676
0.000596822
0.00058827
0.00058032
0.000571734
0.000564097
0.000556317
0.000548921
0.000540932
0.000533186
0.00052746
0.000521757
0.000518159
0.00051537
0.000513721
0.000512784
0.000512809
0.000513023
0.000513841
0.000516548
0.000519342
0.000525338
0.000531125
0.000534425
0.000539442
0.000547511
0.000556253
0.000567839
0.000579242
0.000592845
0.00060606
0.000624261
0.000641748
0.000660635
0.000679953
0.000702542
0.000724442
0.000747466
0.000771132
0.000785926
0.00079036
0.000785622
0.000768211
0.000741742
0.000744098
0.00069055
0.000681372
0.000651295
0.000619524
0.000594826
0.000566241
0.000548744
0.000528823
0.000510029
0.00048902
0.000474804
0.000459246
0.000448709
0.000438021
0.000427998
0.000414953
0.000406081
0.000397438
0.000390539
0.000383414
0.000378095
0.00037005
0.00036341
0.000356225
0.000351527
0.000344708
0.000340101
0.000332959
0.000329094
0.000321907
0.000318212
0.00030985
0.000305857
0.000300067
0.000299911
0.00029358
0.000292061
0.000284932
0.000283095
0.000274301
0.000273124
0.000266471
0.000266762
0.000255906
0.000252307
0.000239212
0.000237484
0.000222025
0.000211191
0.000187598
0.000170304
0.000150234
0.000141477
0.000124541
0.000124426
0.000157896
0.000183151
0.000324401
0.000442589
0.000638083
0.000808387
0.000801162
0.000686955
0.000805568
0.00102016
0.00120726
0.00133757
0.00176387
0.00189805
0.00191917
0.00195771
0.00199513
0.00201709
0.00198232
0.00189109
0.00177771
0.0016724
0.00158438
0.00150067
0.0014158
0.00133025
0.0012531
0.00118999
0.00118315
0.00122965
0.00126549
0.00132787
0.00138676
0.00141718
0.00144216
0.00145004
0.00145964
0.00148107
0.00160655
0.00173663
0.00182015
0.00189765
0.00193975
0.00194883
0.00192414
0.00188343
0.00180343
0.00173092
0.00166523
0.00168731
0.00174287
0.00184285
0.00191266
0.00196902
0.00200338
0.00202613
0.00202553
0.00202732
0.00201991
0.00200905
0.00197625
0.00192632
0.0018566
0.00177775
0.00170076
0.001656
0.00159004
0.00153402
0.00154359
0.00150283
0.00147562
0.00143873
0.00142417
0.00139189
0.00137095
0.00134252
0.00125731
0.00112916
0.000896729
0.000707046
0.000635633
0.000595831
0.000563783
0.000535227
0.000510889
0.000487353
0.000463181
0.000440629
0.000424814
0.000409996
0.000393811
0.000380595
0.000369578
0.000358555
0.000347603
0.000339822
0.000329061
0.000318656
0.000308231
0.000300776
0.000293177
0.000288486
0.000287278
0.000288158
0.000291203
0.000299813
0.000310396
0.000324263
0.000342668
0.000373738
0.00040756
0.000450244
0.000499106
0.000569809
0.000653731
0.000743972
0.000850397
0.000962376
0.0010664
0.00119174
0.00130869
0.00140181
0.00148275
0.00157874
0.00165377
0.00172682
0.00181166
0.00190188
0.00200908
0.00210978
0.00221074
0.00230258
0.00240089
0.00247032
0.00254089
0.00255039
0.00255283
0.00250154
0.0024614
0.00238915
0.00234814
0.00228654
0.00227607
0.00228447
0.00237986
0.00254514
0.00286506
0.00334211
0.00400044
0.00488574
0.00570431
0.00657609
0.006907
0.00671567
0.00596712
0.00535407
0.00479874
0.00411642
0.00355712
0.00303264
0.0024963
0.00198219
0.00149975
0.00103871
0.000578513
0.000344438
0.000230005
0.000204944
0.000174511
0.000203284
0.000183331
0.000235703
0.000201429
0.000264469
0.000212499
0.000263519
0.00020721
0.000217379
0.000207691
0.000277325
0.000242714
0.000312195
0.000258806
0.000269029
0.000239816
0.000225168
0.000225162
0.000239848
0.000269142
0.000259032
0.000312019
0.000242843
0.000277555
0.000207975
0.000216854
0.000206626
0.000262607
0.000212329
0.000264245
0.00020151
0.000235902
0.000183489
0.000203503
0.000173097
0.000201371
0.000221141
0.000317092
0.000441672
0.000697995
0.000990167
0.00123242
0.00147367
0.0018907
0.00232728
0.00279997
0.00292861
0.00306688
0.00270006
0.00249683
0.00228961
0.00205577
0.00190756
0.00177235
0.00165591
0.00157799
0.00148211
0.00143497
0.00135467
0.00132418
0.00125699
0.00123581
0.00118037
0.00116443
0.00111802
0.00110518
0.00106733
0.00105752
0.00102336
0.00101618
0.000991192
0.000979402
0.000952679
0.000942652
0.000920306
0.000915345
0.000895373
0.000886283
0.000868489
0.000861089
0.000842441
0.000834888
0.000819371
0.000812945
0.000796292
0.000788871
0.000775181
0.000765406
0.000752392
0.000743726
0.000730383
0.00072308
0.000710558
0.000702691
0.000690904
0.000682901
0.000671856
0.000665382
0.000655717
0.000649174
0.000638395
0.000630666
0.000620096
0.000610855
0.000601066
0.000593041
0.000584707
0.000576481
0.000566758
0.000559398
0.000551622
0.00054616
0.000540855
0.0005358
0.000531721
0.00052812
0.000524518
0.000521743
0.000521238
0.000520898
0.000523298
0.00052503
0.000525663
0.00052816
0.000533684
0.000539425
0.000547933
0.000556466
0.000567107
0.000577444
0.000592374
0.000606943
0.000622821
0.000639272
0.000659048
0.000678536
0.000699181
0.000721694
0.000735103
0.000739038
0.000734574
0.000718414
0.000692841
0.000696108
0.000644548
0.000636635
0.00060891
0.000578399
0.000555211
0.000527733
0.000511088
0.000492136
0.000474117
0.000454082
0.000440319
0.000425509
0.000415213
0.000405114
0.000395365
0.000383097
0.000374426
0.000366355
0.000359603
0.000352983
0.000347725
0.000340225
0.000333694
0.000326945
0.000322198
0.0003158
0.000311215
0.000304676
0.000301037
0.000294816
0.000291781
0.00028498
0.000282206
0.000278184
0.000279294
0.000275042
0.00027508
0.000270028
0.000269594
0.000262703
0.000262523
0.000257022
0.000257748
0.000248002
0.000245253
0.000233145
0.000231868
0.000215467
0.000207686
0.000186427
0.00017763
0.000149708
0.000142714
0.000125223
0.000130828
0.000160357
0.000252939
0.00033475
0.00049269
0.000655745
0.000787125
0.000792509
0.000693769
0.000795443
0.000989152
0.00116301
0.00131314
0.00170761
0.00183472
0.00186405
0.00189855
0.00193649
0.0019599
0.00193626
0.00183289
0.00171061
0.00159606
0.00150233
0.00141575
0.00132766
0.00124158
0.00116615
0.00110314
0.00109701
0.0011482
0.00118246
0.00124633
0.00130225
0.00133424
0.00135915
0.00136917
0.00137724
0.00139763
0.00151392
0.00164436
0.00172752
0.0018025
0.00184145
0.00184832
0.00182215
0.00178107
0.00170177
0.00163197
0.00156923
0.0015947
0.00164851
0.00174922
0.0018167
0.0018716
0.00190387
0.00192576
0.00192465
0.0019267
0.00191934
0.00190959
0.00187791
0.00183062
0.00176372
0.00168926
0.00161761
0.00157681
0.00151506
0.00146203
0.00147346
0.00143529
0.00140969
0.00137441
0.00136193
0.00132979
0.00131173
0.00128211
0.00120043
0.00108465
0.000862079
0.000673657
0.000608126
0.000572445
0.000542602
0.000515282
0.00049119
0.000468644
0.000447833
0.000429631
0.000414172
0.000399505
0.000387881
0.000381055
0.000372608
0.000363017
0.000356015
0.000350515
0.000338342
0.000323961
0.000313227
0.000306341
0.000301515
0.000299909
0.000300981
0.000304035
0.000308675
0.000318789
0.000330023
0.000344624
0.000363682
0.000396046
0.000430247
0.00047241
0.000518225
0.0005827
0.0006639
0.000749535
0.00084799
0.000955779
0.00105288
0.00117086
0.0012852
0.00138062
0.00147049
0.00156455
0.00164425
0.0017182
0.00180451
0.00189192
0.00200202
0.00209893
0.00220298
0.00229044
0.00238754
0.0024523
0.00251678
0.00252798
0.0025341
0.00249142
0.00245805
0.00239031
0.0023414
0.00227597
0.00224684
0.00224868
0.00232023
0.0024895
0.00279225
0.00330649
0.00403925
0.00501655
0.00597964
0.00699173
0.00733469
0.00714662
0.00660213
0.00582788
0.00526426
0.00444109
0.00382181
0.00321543
0.0027347
0.00218831
0.00163667
0.0011292
0.000616041
0.000358365
0.000232277
0.000205989
0.000174914
0.00020275
0.000181791
0.000234583
0.000200353
0.000265373
0.000212968
0.000264839
0.000207818
0.000217917
0.00020781
0.000276806
0.000243546
0.000312171
0.000259697
0.000268291
0.000240693
0.000225834
0.000225716
0.000240493
0.000268208
0.000259695
0.000311551
0.000243545
0.000276648
0.000207866
0.000217073
0.000206578
0.000263047
0.000212326
0.000264574
0.000200384
0.000234627
0.000181989
0.000202689
0.000172678
0.000200624
0.000218999
0.000311357
0.000416634
0.00063718
0.000890227
0.00114788
0.00131652
0.00160645
0.00193653
0.00223892
0.00235233
0.00234815
0.00228625
0.0021829
0.0020134
0.0019276
0.00178233
0.00171139
0.00160249
0.00154306
0.00146276
0.00141405
0.0013539
0.00131389
0.00126689
0.00123433
0.00119685
0.00117137
0.00114054
0.0011202
0.00109449
0.00107874
0.00105659
0.00104367
0.00102608
0.00101375
0.000993682
0.000982616
0.000965717
0.000958311
0.000943784
0.000934097
0.000919823
0.000910013
0.000896031
0.000886964
0.000871952
0.000862283
0.000846776
0.000837306
0.000823333
0.00081241
0.000798878
0.000789027
0.00077365
0.000763632
0.000748022
0.000737932
0.000722999
0.000712252
0.000697917
0.000689207
0.000676453
0.000667623
0.00065566
0.000647916
0.000638878
0.000631858
0.000623182
0.000616208
0.000607548
0.000598794
0.000587367
0.000578442
0.000567803
0.000559682
0.000550602
0.000542071
0.000534175
0.000527104
0.000520275
0.000514542
0.000510569
0.000507466
0.000506165
0.000504806
0.0005035
0.000504471
0.000507728
0.000511219
0.000517169
0.000523543
0.000531628
0.000539742
0.000552037
0.000564362
0.000577672
0.000592392
0.000609592
0.000627603
0.00064676
0.000668018
0.000680737
0.000685927
0.000680833
0.000666229
0.000641518
0.000645657
0.000596705
0.000588595
0.000562147
0.000533195
0.000511884
0.000486116
0.000470991
0.000453484
0.000436973
0.00041878
0.000406305
0.0003932
0.000384001
0.000375337
0.000366622
0.000355987
0.000348331
0.00034164
0.000335821
0.000330602
0.000326317
0.000320527
0.000315374
0.000310543
0.000307287
0.000303016
0.000300142
0.00029581
0.000293765
0.00028952
0.000287759
0.000282683
0.000280833
0.000277767
0.000278842
0.000275099
0.000274802
0.000269878
0.000268777
0.000262032
0.000260815
0.000254636
0.000253354
0.000243069
0.00023816
0.000225239
0.000220119
0.000204824
0.000194026
0.000174448
0.000159967
0.000140328
0.000135652
0.000116508
0.000123857
0.000139596
0.000215303
0.00026399
0.000339099
0.000468092
0.000586682
0.000633523
0.000596918
0.000695848
0.000877849
0.00105332
0.00118997
0.00157442
0.00173381
0.00179341
0.00184308
0.00188949
0.00191801
0.00189494
0.0018021
0.00167956
0.00156891
0.00147595
0.00139022
0.00130214
0.00121079
0.00113354
0.00107067
0.00106517
0.00111406
0.0011451
0.00120292
0.00125543
0.00128251
0.0013023
0.00130777
0.00131384
0.00133318
0.00145836
0.00158642
0.00166565
0.00174095
0.00178175
0.00178802
0.00176159
0.00171806
0.00163721
0.00156396
0.00149881
0.00152088
0.0015815
0.00168431
0.00175517
0.00181103
0.00184423
0.00186631
0.00186419
0.00186671
0.00185798
0.00184904
0.00181533
0.00177008
0.00170266
0.0016334
0.00156187
0.00152528
0.00146297
0.00141185
0.0014257
0.00138823
0.0013648
0.00132997
0.00131977
0.00128673
0.00127179
0.00123742
0.00116826
0.0010484
0.000829404
0.000645609
0.000583705
0.00055204
0.000525018
0.000499887
0.000477217
0.000456158
0.00043808
0.000423439
0.000409153
0.000395978
0.00038862
0.000386214
0.00037888
0.000370537
0.000368422
0.000367997
0.000356145
0.000337957
0.000324763
0.000318221
0.000316058
0.000316655
0.000319627
0.000324418
0.000330068
0.000341525
0.000354351
0.000370236
0.000390938
0.000424728
0.000459224
0.000500714
0.000545852
0.000612353
0.00070109
0.000785502
0.000884439
0.000990923
0.00109533
0.00120959
0.0013162
0.00141215
0.00150926
0.00160808
0.00168859
0.00176836
0.00185397
0.00194611
0.00205836
0.0021638
0.00227795
0.00237243
0.00247744
0.00255313
0.00262537
0.00264777
0.00266352
0.00262767
0.00259846
0.00252773
0.00247875
0.00240684
0.0023821
0.00237898
0.00246242
0.00261914
0.00294207
0.00342796
0.00412958
0.00502112
0.00590537
0.00684931
0.00719351
0.00726996
0.00673828
0.00618231
0.00555139
0.00477644
0.00405119
0.00337737
0.0028075
0.00231953
0.00177957
0.00121655
0.000659561
0.000363177
0.000233908
0.000206334
0.000175363
0.000203174
0.000183269
0.000235565
0.000201408
0.000264608
0.000212556
0.00026404
0.000207557
0.000217704
0.000207604
0.00027726
0.000242662
0.000312312
0.000258715
0.000268907
0.000239795
0.000225115
0.000225176
0.000239891
0.000268995
0.000259128
0.000311911
0.000242908
0.000277654
0.000208099
0.000216561
0.000206281
0.00026213
0.000212246
0.000264129
0.00020156
0.00023605
0.000183723
0.00020378
0.000172988
0.000200041
0.000217095
0.000308771
0.000398958
0.000571329
0.000789008
0.00102048
0.00114192
0.00138644
0.00163853
0.00199141
0.00208374
0.00220099
0.00205443
0.00202686
0.00189647
0.00179943
0.00170121
0.00161522
0.00153609
0.0014741
0.00140704
0.00136492
0.00130727
0.00127866
0.00122924
0.00120932
0.00116767
0.00115342
0.00111848
0.00110792
0.00107899
0.00107149
0.00104691
0.00104153
0.00102259
0.00101508
0.000996741
0.00098874
0.000975892
0.000970819
0.000960492
0.000952456
0.000944104
0.000936661
0.000927462
0.000918714
0.000908893
0.000898844
0.000889266
0.000879586
0.000870106
0.000858574
0.000849189
0.000838318
0.000825905
0.000814657
0.000801357
0.000789595
0.000775378
0.000761751
0.000747479
0.000737457
0.000725718
0.000717106
0.000705697
0.00069719
0.000687209
0.000677296
0.000665794
0.000655762
0.000644854
0.000629209
0.000612322
0.000596086
0.000580971
0.000566558
0.000551813
0.000537773
0.000525536
0.000513906
0.000503046
0.000492755
0.000484587
0.000477523
0.000471142
0.000466248
0.000462614
0.000461266
0.000461133
0.000460619
0.000462019
0.000464945
0.000468921
0.000474234
0.000483201
0.000493299
0.000504587
0.00051814
0.000534421
0.000552928
0.000571842
0.000595631
0.000609536
0.000616274
0.000614467
0.000604054
0.000582616
0.000591607
0.000545418
0.000543957
0.000520279
0.000496775
0.000477481
0.000456038
0.000442682
0.000428778
0.000413966
0.000398872
0.000387758
0.000377239
0.000369145
0.000362746
0.000355099
0.000346715
0.000340047
0.000335398
0.000330518
0.000327197
0.000323657
0.000319554
0.000314903
0.000311406
0.000308272
0.000304987
0.000301902
0.000298298
0.00029578
0.000292087
0.000289718
0.000285167
0.000282708
0.000280034
0.000280314
0.000276961
0.000275957
0.000271406
0.000269631
0.000263226
0.000261376
0.000255263
0.000253581
0.000243595
0.000239201
0.000226314
0.000221989
0.000204687
0.000195647
0.000173417
0.00016145
0.000135308
0.000129809
0.000117729
0.000119936
0.000128304
0.000218592
0.000240521
0.000355824
0.000471796
0.000578973
0.000635556
0.000604167
0.000699935
0.000856228
0.00103237
0.00118275
0.00157467
0.00172198
0.00177339
0.00182383
0.00186765
0.00189637
0.00187791
0.00179287
0.00167926
0.00156606
0.00147371
0.00138943
0.00130453
0.00121448
0.0011369
0.00106964
0.0010594
0.00110874
0.00113797
0.00119597
0.00124507
0.00127253
0.00129191
0.0012969
0.00129788
0.00131067
0.00141771
0.00154775
0.0016285
0.00170406
0.00174262
0.00175219
0.00172316
0.00167988
0.00159891
0.00152869
0.00145857
0.0014813
0.00153633
0.00164477
0.00171777
0.00178185
0.00182115
0.00184976
0.00184975
0.00185338
0.00184372
0.0018347
0.00179976
0.00175454
0.00168611
0.00161785
0.00154471
0.00150729
0.00144624
0.00139363
0.00141029
0.00137249
0.00134836
0.00131226
0.00130151
0.00126696
0.00125062
0.00121523
0.00114624
0.00102471
0.00080377
0.000619626
0.000558635
0.000529856
0.000505006
0.000482328
0.000461531
0.000443236
0.000428761
0.000417914
0.000405774
0.000395287
0.000394278
0.000400388
0.000394063
0.000380096
0.000379382
0.000389138
0.000386061
0.000366922
0.000350016
0.000340518
0.000339056
0.000341199
0.000346911
0.000354425
0.000360922
0.000373945
0.000387877
0.000405117
0.000427802
0.000463264
0.000497298
0.000538638
0.000591284
0.000663362
0.000747263
0.000832857
0.000940796
0.00105246
0.00116138
0.00127405
0.0013827
0.00148107
0.00158107
0.00167718
0.00176049
0.00184189
0.00193032
0.00202188
0.00213839
0.00224409
0.00236239
0.00245588
0.00256202
0.00263851
0.00271111
0.00273437
0.00275372
0.0027217
0.00269201
0.00262414
0.00257289
0.00250271
0.0024749
0.00247069
0.0025452
0.00270275
0.00300849
0.00348273
0.00417182
0.00501225
0.00586088
0.00674815
0.00720345
0.00738434
0.00710601
0.00657983
0.00601352
0.00513541
0.00435824
0.00363843
0.00301526
0.00248445
0.0018837
0.00131576
0.000701857
0.000381156
0.000235604
0.000206312
0.000175619
0.000202797
0.000181728
0.000234522
0.0002003
0.000265629
0.000213153
0.00026537
0.000208192
0.000218198
0.00020779
0.000276834
0.000243545
0.000312355
0.000259695
0.000268129
0.000240776
0.000225886
0.000225659
0.000240426
0.000267948
0.000259712
0.000311351
0.00024351
0.000276632
0.000207886
0.000216788
0.00020618
0.000262476
0.000212128
0.000264314
0.000200436
0.000234666
0.00018214
0.000202865
0.000172412
0.00019898
0.000213709
0.000303089
0.000385754
0.00053644
0.000702278
0.00094494
0.00103469
0.00119905
0.0013376
0.00150966
0.00162911
0.00168285
0.00168722
0.00167743
0.00159919
0.00158161
0.00148833
0.00146917
0.00138588
0.00136629
0.00129804
0.00127949
0.0012253
0.00120847
0.00116559
0.00115079
0.0011169
0.00110444
0.00107763
0.00106703
0.00104574
0.00103676
0.00102005
0.00101148
0.0009997
0.000989192
0.000978457
0.000967135
0.000959502
0.000950937
0.000944957
0.000934775
0.000929746
0.000919603
0.000914088
0.000903608
0.000896282
0.000884636
0.000875721
0.000862753
0.000853716
0.000840161
0.000830597
0.000817275
0.000804633
0.000791798
0.000778958
0.000764802
0.000749375
0.000732921
0.000717014
0.000702195
0.000686026
0.000672156
0.000656354
0.000644309
0.000631681
0.000622409
0.000612848
0.00060605
0.000596406
0.000584129
0.00056875
0.0005533
0.000535688
0.000518302
0.000500037
0.000482648
0.000466199
0.000450229
0.000435505
0.000421902
0.000410431
0.000401137
0.000394033
0.000388623
0.00038354
0.000381178
0.000380442
0.000381737
0.00038565
0.000391243
0.000398325
0.000407201
0.000419656
0.000433772
0.000448546
0.000467018
0.000486532
0.000509551
0.000532619
0.000560008
0.000578194
0.000589319
0.000591149
0.000582897
0.000566248
0.000575997
0.000534555
0.000531943
0.000510243
0.000487478
0.000469905
0.000449344
0.00043715
0.00042368
0.000409752
0.000395226
0.000384831
0.000374861
0.000367277
0.000361356
0.000354047
0.000346203
0.000339789
0.000335495
0.0003306
0.000327523
0.000323814
0.000319913
0.000315201
0.000311861
0.000308493
0.000305397
0.000302112
0.000298634
0.000295991
0.000292251
0.000289853
0.000285301
0.000282932
0.000279925
0.000279965
0.000276133
0.00027525
0.000269925
0.000268556
0.000261249
0.000259808
0.000252022
0.000250209
0.000238524
0.000234078
0.000219212
0.000214182
0.000195835
0.000187184
0.000164969
0.000154143
0.000132504
0.000130254
0.000114031
0.000119883
0.000127215
0.000195372
0.000233214
0.000279127
0.000376789
0.000467578
0.000526877
0.000534385
0.000619182
0.000766493
0.000930662
0.00106561
0.00141791
0.00159125
0.001676
0.00174857
0.00181413
0.00186039
0.00184379
0.00176543
0.0016517
0.00154344
0.0014544
0.00137606
0.00129155
0.00120514
0.00112763
0.00106879
0.00106147
0.00111366
0.00114046
0.00119934
0.00124581
0.00127591
0.00128716
0.00129366
0.00128823
0.00130794
0.00142292
0.00154625
0.00162017
0.00169349
0.00172909
0.00173455
0.00170047
0.00165842
0.00157207
0.00148996
0.00141641
0.00143229
0.00149329
0.00159935
0.00167533
0.00174066
0.00178674
0.00182161
0.00182802
0.00183812
0.00183351
0.00183033
0.00179882
0.00176068
0.00170001
0.00163504
0.00156657
0.00153755
0.00148193
0.00143415
0.00146345
0.00142984
0.00141537
0.00138243
0.0013789
0.00134581
0.00133125
0.00129563
0.00122418
0.00109612
0.000860474
0.000659099
0.000585844
0.000545636
0.000510695
0.000479079
0.000453043
0.000431291
0.000417451
0.000410433
0.000400438
0.000392965
0.000397594
0.000412776
0.000422633
0.000412629
0.000397771
0.000403976
0.000413599
0.000403527
0.000387279
0.000375519
0.000371679
0.000374369
0.000381019
0.000391037
0.000400308
0.000414864
0.000429554
0.000448264
0.000472994
0.000509863
0.000545316
0.000587142
0.000651509
0.000728986
0.000808639
0.000900813
0.00101661
0.00113489
0.0012521
0.00136893
0.00148531
0.00158827
0.00168947
0.00178531
0.00187123
0.00195361
0.00204447
0.00213832
0.00225577
0.00236826
0.00249103
0.00259267
0.00270275
0.00278817
0.00286301
0.00289197
0.00291701
0.00288839
0.00286161
0.00279212
0.00274475
0.0026735
0.0026491
0.00263735
0.00271645
0.00284973
0.00314819
0.00356498
0.00419473
0.00491
0.00568015
0.00644716
0.00692405
0.00727201
0.00715739
0.0068389
0.00624704
0.00553118
0.00472
0.00395052
0.00320973
0.00259336
0.00195101
0.00138523
0.000761729
0.000389979
0.00023877
0.000207542
0.000176465
0.000203295
0.000183282
0.000235502
0.000201364
0.000264742
0.000212642
0.000264506
0.00020787
0.000217961
0.000207479
0.000277167
0.000242589
0.000312408
0.000258605
0.000268595
0.000239811
0.000225075
0.00022518
0.000239934
0.000268761
0.000259218
0.000311807
0.000242992
0.000277744
0.00020824
0.000216299
0.000205944
0.000261643
0.000212142
0.000263971
0.000201588
0.000236164
0.000183863
0.00020405
0.000172941
0.000199001
0.000212562
0.000300451
0.000373937
0.000496327
0.00062867
0.000834936
0.000933664
0.00108624
0.00120522
0.00134698
0.00138066
0.00148828
0.00141517
0.00146784
0.00137997
0.00138339
0.00130831
0.00129395
0.00123178
0.00121551
0.001164
0.00115095
0.00110857
0.0010991
0.00106463
0.00105806
0.00103057
0.00102601
0.00100437
0.00100128
0.000984394
0.000982346
0.000968984
0.000967115
0.000957307
0.000952951
0.000943882
0.000938709
0.000931789
0.000928989
0.000923501
0.000918151
0.000913759
0.000906928
0.000901807
0.000893529
0.000885953
0.000875198
0.000866689
0.000853101
0.00084388
0.000828576
0.000819176
0.000802633
0.000791351
0.000775818
0.000764583
0.000748066
0.00073583
0.000719618
0.000708155
0.000693659
0.00068121
0.000665081
0.000649007
0.000630624
0.000613493
0.00059465
0.000577201
0.000560577
0.000543976
0.000526801
0.000506447
0.000488237
0.000468186
0.000448976
0.000429089
0.000411964
0.000395434
0.000381543
0.000368191
0.000357617
0.000349295
0.00034371
0.000340539
0.000340106
0.000338523
0.000338589
0.000340895
0.000344397
0.000350938
0.000359125
0.000367207
0.000375853
0.000389619
0.000406022
0.000425137
0.000445324
0.000471219
0.000495459
0.000524444
0.000554043
0.000579201
0.000585916
0.000596598
0.000579166
0.000572623
0.000574293
0.000540156
0.000531117
0.000517422
0.000487253
0.000476338
0.000448518
0.000442497
0.000422283
0.000414455
0.00039359
0.00038898
0.000372917
0.000370931
0.000359058
0.000357243
0.000343812
0.000342663
0.000332827
0.000333142
0.000324593
0.000325974
0.000316781
0.000317102
0.000308503
0.000310147
0.000301731
0.000303476
0.000294768
0.000297037
0.000288176
0.000290653
0.00028103
0.000283632
0.000275386
0.000280289
0.00027123
0.000275206
0.000264805
0.000268189
0.000255978
0.000259279
0.000246574
0.000249712
0.000233548
0.000234445
0.000215455
0.000215354
0.000192759
0.00018806
0.000163044
0.000153347
0.000130398
0.000123359
0.000111708
0.000115038
0.000122912
0.0001956
0.000205463
0.000291785
0.000376256
0.000461285
0.00051933
0.000533687
0.000611776
0.000749883
0.000905989
0.00106589
0.00141152
0.00160832
0.00167553
0.00176139
0.0017968
0.00184773
0.0018285
0.0017724
0.00165528
0.00155648
0.00145682
0.0013867
0.00129883
0.00121984
0.00113575
0.00107572
0.00105738
0.00111392
0.00113641
0.00120067
0.00124482
0.00127818
0.00129459
0.00130248
0.00129845
0.00130959
0.00141104
0.001546
0.00163065
0.00170065
0.00174495
0.00174556
0.00171838
0.00166968
0.00158831
0.0015062
0.0014277
0.00144099
0.00148981
0.0015889
0.00165747
0.00171599
0.00175327
0.0017795
0.00178097
0.00178681
0.0017819
0.00177656
0.00174906
0.00170932
0.00165034
0.00158436
0.0015205
0.0014921
0.00144274
0.00140223
0.00142884
0.00141005
0.00139866
0.00138281
0.00138979
0.00137042
0.0013719
0.00135639
0.00130198
0.00118736
0.000954923
0.000752398
0.000678277
0.00063042
0.000584074
0.000535018
0.000490364
0.0004485
0.000411968
0.000395048
0.000387338
0.000381781
0.000390057
0.000406887
0.000423468
0.000441609
0.000443582
0.0004336
0.000441064
0.000444721
0.000431843
0.000417703
0.000412318
0.000415668
0.000425361
0.000437788
0.000448509
0.000464689
0.000480102
0.000500146
0.000528069
0.000567262
0.000605055
0.000651686
0.000722146
0.000801382
0.000883581
0.000985285
0.0011111
0.00123977
0.00136254
0.00148734
0.00160739
0.00171767
0.00182054
0.00192114
0.00200826
0.00209807
0.00218895
0.00228591
0.00240016
0.00251747
0.00263992
0.00274616
0.00285965
0.00294634
0.00302346
0.00305432
0.00308327
0.00306082
0.00304003
0.00297549