/*--------------------------------*- C++ -*----------------------------------*\
| =========                 |                                                 |
| \\      /  F ield         | OpenFOAM: The Open Source CFD Toolbox           |
|  \\    /   O peration     | Version:  v2006                                 |
|   \\  /    A nd           | Website:  www.openfoam.com                      |
|    \\/     M anipulation  |                                                 |
\*---------------------------------------------------------------------------*/
FoamFile
{
    version     2.0;
    format      ascii;
    class       volVectorField;
    location    "185";
    object      rhoUMean;
}
// * * * * * * * * * * * * * * * * * * * * * * * * * * * * * * * * * * * * * //

dimensions      [1 -2 -1 0 0 0 0];


internalField   nonuniform List<vector> 
93840
(
(0.855367 0.019114 -8.65262e-19)
(0.850596 0.0206738 7.21925e-17)
(0.85154 0.0223161 3.14084e-17)
(0.848775 0.0222898 -2.80741e-16)
(0.853167 0.0250081 2.38793e-17)
(0.852025 0.0231592 -5.31096e-16)
(0.850941 0.0250667 3.61261e-16)
(0.845381 0.0219605 5.93422e-17)
(0.846326 0.0229786 -5.91753e-17)
(0.847393 0.0193934 -3.38912e-17)
(0.849831 0.0196367 -2.60848e-17)
(0.849417 0.0155874 1.53697e-16)
(0.848401 0.0152011 -6.14579e-17)
(0.844518 0.0111765 1.7017e-16)
(0.840896 0.0107022 2.31441e-17)
(0.834818 0.00733946 5.59292e-17)
(0.829463 0.00801217 2.65281e-17)
(0.822351 0.00612225 -1.05468e-17)
(0.816061 0.0080274 1.55279e-17)
(0.803916 0.00761267 -2.6222e-17)
(0.780772 0.00987729 2.00177e-18)
(0.733841 0.0103286 -3.81607e-17)
(0.678704 0.0138465 -3.3129e-18)
(0.625899 0.0168703 -4.29871e-17)
(0.584677 0.0187869 -5.58532e-18)
(0.557426 0.0182084 -3.80054e-17)
(0.549821 0.0181224 -4.92866e-18)
(0.536743 0.0138286 -2.85256e-17)
(0.523807 0.0114955 -3.80713e-18)
(0.502323 0.00991579 -2.39027e-17)
(0.481692 0.0060808 -5.59983e-18)
(0.438179 -0.00155811 -2.28436e-17)
(0.432737 -0.0210692 -8.5954e-18)
(0.455368 -0.0235248 -2.13548e-17)
(0.413078 -0.0222471 -1.00397e-17)
(0.434128 -0.0239257 -2.03547e-17)
(0.402069 -0.0206427 -1.11657e-17)
(0.418234 -0.0225122 -1.95119e-17)
(0.392107 -0.0189174 -1.19896e-17)
(0.403883 -0.0201145 -1.88734e-17)
(0.382802 -0.0164834 -1.26096e-17)
(0.392373 -0.0172865 -1.83237e-17)
(0.374853 -0.0145334 -1.30905e-17)
(0.381929 -0.0149205 -1.78639e-17)
(0.367043 -0.0129515 -1.34807e-17)
(0.371487 -0.0129613 -1.74813e-17)
(0.358311 -0.011015 -1.37625e-17)
(0.361661 -0.0103706 -1.71725e-17)
(0.350817 -0.00899351 -1.40159e-17)
(0.352363 -0.00834011 -1.6876e-17)
(0.342827 -0.00669965 -1.41887e-17)
(0.344326 -0.0060595 -1.66359e-17)
(0.335464 -0.00518288 -1.43312e-17)
(0.334069 -0.00377181 -1.64664e-17)
(0.327503 -0.00107838 -1.43494e-17)
(0.329627 -0.000141392 -1.63353e-17)
(0.324304 0.000171015 -1.44346e-17)
(0.323556 0.000370047 -1.61544e-17)
(0.316551 0.00119781 -1.44758e-17)
(0.31489 0.00314997 -1.59874e-17)
(0.311264 0.00451851 -1.46063e-17)
(0.30986 0.00516216 -1.58432e-17)
(0.305219 0.00693694 -1.46585e-17)
(0.305115 0.00867463 -1.56212e-17)
(0.30267 0.00965349 -1.43518e-17)
(0.301775 0.0109065 -1.5647e-17)
(0.299965 0.0125099 -1.44764e-17)
(0.300364 0.0136194 -1.5355e-17)
(0.298825 0.0145955 -1.42772e-17)
(0.298763 0.015975 -1.47403e-17)
(0.298313 0.0171314 -1.41676e-17)
(0.298327 0.0183193 -1.39403e-17)
(0.298453 0.019754 -1.3573e-17)
(0.299425 0.0208996 -1.33385e-17)
(0.299814 0.0220499 -1.46519e-17)
(0.300872 0.0233893 -1.55025e-17)
(0.30198 0.0245591 -1.37711e-17)
(0.303292 0.0259038 -1.46011e-17)
(0.305261 0.0272432 -1.40637e-17)
(0.307309 0.0283207 -1.52042e-17)
(0.308999 0.0295378 -1.59172e-17)
(0.311088 0.0308407 -1.57071e-17)
(0.313384 0.0323411 -1.59382e-17)
(0.316692 0.0339146 -1.5904e-17)
(0.32018 0.0352023 -1.71518e-17)
(0.323505 0.0365801 -1.64116e-17)
(0.327297 0.037937 -1.68634e-17)
(0.330854 0.0392072 -1.8265e-17)
(0.334433 0.0406526 -1.78523e-17)
(0.338257 0.042355 -1.88534e-17)
(0.343196 0.0442832 -1.58589e-17)
(0.348719 0.0458163 -1.80817e-17)
(0.354102 0.0473957 -1.82041e-17)
(0.360051 0.0489935 -1.91662e-17)
(0.366046 0.0506148 -1.65257e-17)
(0.372785 0.0522408 -1.71767e-17)
(0.379575 0.0536241 -1.42764e-17)
(0.386571 0.0551286 -1.84166e-17)
(0.39375 0.0565886 -1.59533e-17)
(0.401662 0.0581724 -1.40685e-17)
(0.409718 0.0594252 -1.75169e-17)
(0.417485 0.0606528 -1.56102e-17)
(0.424843 0.0626046 -1.29341e-17)
(0.438206 0.0658595 -1.85221e-17)
(0.453297 0.0653606 -1.65201e-17)
(0.458649 0.0624605 -2.36924e-17)
(0.461014 0.0630329 -1.65343e-17)
(0.470249 0.0655527 -2.31849e-17)
(0.481043 0.0659212 -1.3095e-17)
(0.491604 0.0659198 -2.01979e-17)
(0.502039 0.0652961 -1.36697e-17)
(0.512302 0.0644968 -2.15952e-17)
(0.522152 0.0634128 -1.52924e-17)
(0.533892 0.0626936 -2.11684e-17)
(0.545056 0.0603399 -1.43723e-17)
(0.556065 0.0578687 -1.7692e-17)
(0.566289 0.0547515 -1.65933e-17)
(0.57799 0.0521298 -1.80863e-17)
(0.588321 0.0473779 -1.6978e-17)
(0.598936 0.0432958 -1.84177e-17)
(0.608579 0.0376578 -1.76149e-17)
(0.618975 0.0334292 -1.73357e-17)
(0.626517 0.0258047 -1.72134e-17)
(0.634846 0.0207429 -1.78213e-17)
(0.639422 0.0116305 -1.72739e-17)
(0.64292 0.0071339 -1.86606e-17)
(0.65 -0.000565792 -1.7734e-17)
(0.648885 -0.00643929 -1.91142e-17)
(0.654873 -0.0104944 -1.82649e-17)
(0.657369 -0.0181295 -1.95306e-17)
(0.658233 -0.0220929 -1.88331e-17)
(0.660521 -0.0277929 -2.00155e-17)
(0.660772 -0.0312653 -1.93062e-17)
(0.663548 -0.035606 -2.08917e-17)
(0.665295 -0.0396836 -1.98368e-17)
(0.66703 -0.0443654 -2.22271e-17)
(0.667391 -0.0476542 -2.08516e-17)
(0.66945 -0.0511671 -2.22277e-17)
(0.670629 -0.0543831 -2.14992e-17)
(0.673179 -0.0576208 -2.28946e-17)
(0.675534 -0.0613689 -2.22036e-17)
(0.677781 -0.0655102 -2.41303e-17)
(0.678748 -0.0691967 -2.33851e-17)
(0.680689 -0.0722924 -2.28832e-17)
(0.682723 -0.0760177 -2.31852e-17)
(0.68494 -0.0796385 -2.35668e-17)
(0.687199 -0.0837181 -2.30195e-17)
(0.689492 -0.0880972 -2.39646e-17)
(0.690967 -0.092944 -2.39029e-17)
(0.692033 -0.0971625 -2.39778e-17)
(0.693302 -0.101626 -2.52508e-17)
(0.694532 -0.106235 -2.48247e-17)
(0.695366 -0.111265 -2.61257e-17)
(0.695855 -0.116274 -2.57076e-17)
(0.6959 -0.121415 -2.65463e-17)
(0.695829 -0.126651 -2.6991e-17)
(0.695205 -0.132209 -2.78442e-17)
(0.694233 -0.137893 -2.78484e-17)
(0.692121 -0.143657 -2.92213e-17)
(0.689914 -0.148487 -2.83311e-17)
(0.688504 -0.153798 -2.9269e-17)
(0.687283 -0.160513 -2.8587e-17)
(0.684353 -0.168151 -2.99971e-17)
(0.680676 -0.175613 -2.96423e-17)
(0.675921 -0.183776 -3.09654e-17)
(0.669926 -0.192033 -3.07667e-17)
(0.66216 -0.200081 -3.20321e-17)
(0.654233 -0.207523 -3.12928e-17)
(0.645934 -0.21644 -3.3749e-17)
(0.635436 -0.227184 -3.27204e-17)
(0.620386 -0.23761 -3.47572e-17)
(0.602521 -0.246234 -3.42666e-17)
(0.582519 -0.253259 -3.61634e-17)
(0.561871 -0.262344 -3.63161e-17)
(0.532621 -0.273078 -3.66984e-17)
(0.497067 -0.279737 -3.7975e-17)
(0.452786 -0.284226 -3.79738e-17)
(0.396306 -0.277302 -3.92942e-17)
(0.328856 -0.256175 -4.01976e-17)
(0.25595 -0.220173 -4.20633e-17)
(0.172916 -0.17206 -4.24869e-17)
(0.0540028 -0.0216704 -5.48264e-17)
(0.0194769 0.140196 -4.52855e-18)
(0.00265517 0.436713 -7.94971e-18)
(0.090632 0.566212 -9.12067e-18)
(0.21495 0.733383 -1.23854e-17)
(0.426966 0.712589 -1.30881e-17)
(0.534201 0.687438 -1.21119e-17)
(0.61809 0.602739 -1.24457e-17)
(0.649684 0.566575 -1.195e-17)
(0.691131 0.524736 -1.1522e-17)
(0.721093 0.475263 -1.11337e-17)
(0.739177 0.427519 -1.10129e-17)
(0.749943 0.388694 -1.08056e-17)
(0.755407 0.352145 -1.09331e-17)
(0.757409 0.32403 -1.10872e-17)
(0.75825 0.299368 -1.15306e-17)
(0.757362 0.277733 -1.16842e-17)
(0.755674 0.259107 -1.22361e-17)
(0.753103 0.241913 -1.30211e-17)
(0.749583 0.228397 -1.31415e-17)
(0.745987 0.21647 -1.3913e-17)
(0.742744 0.205407 -1.40191e-17)
(0.739299 0.195349 -1.50124e-17)
(0.735921 0.185876 -1.44991e-17)
(0.73205 0.17759 -1.58885e-17)
(0.728494 0.170104 -1.55282e-17)
(0.724895 0.16275 -1.6657e-17)
(0.721425 0.155986 -1.61323e-17)
(0.717901 0.149545 -1.73755e-17)
(0.714945 0.143283 -1.69521e-17)
(0.711341 0.136965 -1.81781e-17)
(0.707679 0.130929 -1.759e-17)
(0.703542 0.124722 -1.8648e-17)
(0.699228 0.118988 -1.83364e-17)
(0.694208 0.113602 -1.91971e-17)
(0.689697 0.108703 -1.85051e-17)
(0.685161 0.103581 -1.95659e-17)
(0.680775 0.098801 -1.90632e-17)
(0.676743 0.093718 -2.01391e-17)
(0.673571 0.0882203 -1.94177e-17)
(0.66838 0.0829864 -2.06087e-17)
(0.662391 0.0787761 -2.02165e-17)
(0.656006 0.0747788 -2.11996e-17)
(0.649784 0.0711444 -2.0756e-17)
(0.643422 0.0678613 -2.11745e-17)
(0.637971 0.0646814 -2.11121e-17)
(0.632671 0.0616041 -2.185e-17)
(0.628392 0.0587177 -2.1252e-17)
(0.624414 0.0561192 -2.20236e-17)
(0.62341 0.0534526 -2.20572e-17)
(0.62255 0.0491426 -2.29098e-17)
(0.619048 0.0453234 -2.21867e-17)
(0.615423 0.0411632 -2.26218e-17)
(0.610029 0.0374911 -2.22978e-17)
(0.604019 0.0345358 -2.35884e-17)
(0.598397 0.0318985 -2.3401e-17)
(0.592937 0.0291191 -2.42496e-17)
(0.588142 0.0266917 -2.4235e-17)
(0.58385 0.0238526 -2.44248e-17)
(0.580199 0.0214345 -2.44459e-17)
(0.576637 0.0184794 -2.52372e-17)
(0.573115 0.016047 -2.55419e-17)
(0.569293 0.0128071 -2.55658e-17)
(0.564895 0.010388 -2.58386e-17)
(0.560321 0.00734861 -2.61437e-17)
(0.556786 0.00546052 -2.63406e-17)
(0.553141 0.00109232 -2.66121e-17)
(0.54667 0.000209999 -2.69105e-17)
(0.546989 -0.00165129 -2.71695e-17)
(0.544708 -0.00670995 -2.72751e-17)
(0.538964 -0.00825164 -2.7559e-17)
(0.535288 -0.0113919 -2.79383e-17)
(0.530645 -0.0141215 -2.81308e-17)
(0.525642 -0.0175305 -2.85775e-17)
(0.519663 -0.019814 -2.88656e-17)
(0.514515 -0.0227413 -2.9212e-17)
(0.508516 -0.0257324 -2.97384e-17)
(0.501064 -0.0287532 -2.97011e-17)
(0.492769 -0.0309205 -3.10356e-17)
(0.484094 -0.0332341 -3.09435e-17)
(0.474787 -0.0350106 -3.17343e-17)
(0.466356 -0.036926 -3.108e-17)
(0.457953 -0.0385033 -3.17849e-17)
(0.449332 -0.0400667 -3.08815e-17)
(0.44035 -0.0410208 -3.25714e-17)
(0.432432 -0.0424208 -3.144e-17)
(0.422577 -0.04477 -3.324e-17)
(0.406811 -0.0458575 -3.19936e-17)
(0.3932 -0.0430743 -3.33156e-17)
(0.389866 -0.0419617 -3.31454e-17)
(0.385655 -0.0445604 -3.43695e-17)
(0.372795 -0.046708 -3.34146e-17)
(0.358766 -0.0449232 -3.55721e-17)
(0.35335 -0.0430344 -3.59081e-17)
(0.350509 -0.043749 -3.64854e-17)
(0.342731 -0.0451832 -3.52471e-17)
(0.331203 -0.0449943 -3.66053e-17)
(0.32084 -0.0439796 -3.48683e-17)
(0.311359 -0.0433641 -3.47096e-17)
(0.302536 -0.042851 -3.40005e-17)
(0.292317 -0.0420722 -3.26275e-17)
(0.280769 -0.0412092 -3.46585e-17)
(0.272037 -0.0407919 -3.60713e-17)
(0.263258 -0.0401137 -3.61267e-17)
(0.255167 -0.0392716 -3.90304e-17)
(0.248259 -0.0385944 -3.72491e-17)
(0.241552 -0.0379362 -3.7507e-17)
(0.234742 -0.0372518 -3.52204e-17)
(0.227609 -0.0364727 -3.72584e-17)
(0.220248 -0.0356396 -3.45541e-17)
(0.213116 -0.0349082 -3.8507e-17)
(0.206628 -0.0341787 -3.61931e-17)
(0.199464 -0.0332514 -3.5912e-17)
(0.192319 -0.0322544 -3.86807e-17)
(0.184211 -0.0311139 -3.96807e-17)
(0.176547 -0.0302701 -4.20323e-17)
(0.170219 -0.0295617 -4.13092e-17)
(0.163948 -0.0285781 -4.10687e-17)
(0.157368 -0.0274922 -3.84756e-17)
(0.150789 -0.0262612 -4.46796e-17)
(0.143172 -0.0250404 -4.13088e-17)
(0.136503 -0.0242187 -4.38183e-17)
(0.129402 -0.0232128 -3.90009e-17)
(0.122158 -0.0223187 -3.82047e-17)
(0.117278 -0.0210977 -3.99487e-17)
(0.108628 -0.0190506 -2.92548e-17)
(0.0998645 -0.0181643 -3.55791e-17)
(0.0947518 -0.0176649 -3.71737e-17)
(0.0886762 -0.0164896 -3.60765e-17)
(0.0836163 -0.0154555 -3.60145e-17)
(0.0766904 -0.0141109 -3.58584e-17)
(0.0712724 -0.0131691 -3.70343e-17)
(0.0647324 -0.0119124 -3.39623e-17)
(0.060267 -0.0110654 -3.71376e-17)
(0.0538872 -0.00945061 -3.10924e-17)
(0.048865 -0.00833091 -3.70067e-17)
(0.0415231 -0.00737785 -3.41256e-17)
(0.0389426 -0.00742352 -3.75349e-17)
(0.0347309 -0.00652698 -3.20573e-17)
(0.0345946 -0.00644615 -3.97089e-17)
(0.0310384 -0.00569194 -3.04523e-17)
(0.0321172 -0.00619329 -3.73774e-17)
(0.0295345 -0.00598836 -3.46961e-17)
(0.0330139 -0.00691739 -3.86597e-17)
(0.0311349 -0.00648069 -3.72531e-17)
(0.0366712 -0.00799125 -4.17465e-17)
(0.0349263 -0.0077166 -3.62692e-17)
(0.0430665 -0.0102234 -4.37011e-17)
(0.0418454 -0.00944107 -3.60444e-17)
(0.0517971 -0.0135981 -4.4593e-17)
(0.0521114 -0.0126564 -3.54247e-17)
(0.0634615 -0.0189005 -4.56233e-17)
(0.0660742 -0.023597 -3.32558e-17)
(0.0900168 -0.0312902 -4.92049e-17)
(0.0874811 -0.0729872 -2.87673e-17)
(0.150234 0.00867058 -5.13433e-17)
(0.216256 0.0108611 -1.61971e-17)
(0.288871 0.0235986 -4.27346e-17)
(0.374001 0.027144 -7.99164e-18)
(0.4424 0.0298289 -3.56285e-17)
(0.507142 0.0283026 -3.02681e-18)
(0.548551 0.0227688 -3.73111e-17)
(0.578111 0.0208103 -4.01395e-18)
(0.60866 0.0182421 -4.18374e-17)
(0.665165 0.0141772 -7.14931e-18)
(0.726355 0.0105957 -4.03499e-17)
(0.777467 0.0100433 -4.66196e-18)
(0.803241 0.00762713 -2.79874e-17)
(0.8159 0.00795519 2.42335e-17)
(0.822325 0.00610036 -2.22319e-17)
(0.829198 0.00802098 7.1528e-17)
(0.834619 0.00735496 -8.01316e-18)
(0.840719 0.0107343 1.40553e-16)
(0.844468 0.0112218 -3.80534e-17)
(0.848349 0.0152808 3.3756e-16)
(0.849342 0.0156784 -3.13081e-17)
(0.849721 0.019721 2.60672e-16)
(0.847289 0.0195088 -1.05691e-16)
(0.846095 0.0231121 1.46997e-16)
(0.84509 0.0221079 -9.86356e-17)
(0.850632 0.0252027 -4.06366e-17)
(0.851705 0.0233244 -8.33099e-17)
(0.85297 0.0251214 -3.82022e-16)
(0.848631 0.0224352 1.52814e-16)
(0.851387 0.0224189 -1.95403e-17)
(0.850462 0.0207929 -6.5923e-18)
(0.855238 0.0192378 -5.8264e-17)
(0.855223 0.0192431 -5.44488e-17)
(0.850454 0.0207987 2.91331e-18)
(0.851381 0.022424 -1.10891e-17)
(0.848618 0.0224387 1.19849e-16)
(0.852959 0.0251257 -3.61036e-16)
(0.851716 0.02333 -9.76433e-17)
(0.850662 0.0252077 -9.96834e-17)
(0.845112 0.0221139 -9.29321e-17)
(0.846086 0.02312 1.39377e-16)
(0.847255 0.0195135 -3.26737e-17)
(0.849678 0.0197321 2.69799e-16)
(0.849312 0.0156923 -5.61826e-17)
(0.848355 0.0152993 2.82116e-16)
(0.844513 0.0112551 -3.50719e-17)
(0.840826 0.0107887 1.40026e-16)
(0.834804 0.00744476 -1.82691e-17)
(0.829481 0.00814222 7.33036e-17)
(0.822798 0.00626557 -1.53055e-17)
(0.817193 0.00818599 2.53805e-17)
(0.807784 0.00787608 -2.92565e-17)
(0.791197 0.010308 3.09895e-19)
(0.753491 0.0110328 -3.78789e-17)
(0.703484 0.0147875 -5.61274e-18)
(0.655566 0.0183402 -4.06373e-17)
(0.620095 0.0214456 -5.39722e-18)
(0.57789 0.0229551 -4.1146e-17)
(0.556057 0.0231643 -7.14496e-18)
(0.535624 0.0185872 -3.25265e-17)
(0.521112 0.0112433 -1.11079e-17)
(0.510644 0.00209775 -2.71445e-17)
(0.506581 -0.00117184 -1.09981e-17)
(0.499379 -0.0131003 -2.43728e-17)
(0.493629 0.000520344 -1.2616e-17)
(0.482953 -0.0185799 -2.30481e-17)
(0.477801 -0.0111244 -1.38546e-17)
(0.468565 -0.0181672 -2.20056e-17)
(0.464035 -0.0143795 -1.4794e-17)
(0.456259 -0.0171283 -2.11898e-17)
(0.45143 -0.0148393 -1.55198e-17)
(0.444975 -0.0156202 -2.06165e-17)
(0.439955 -0.0135656 -1.59633e-17)
(0.434983 -0.0136737 -2.02044e-17)
(0.42967 -0.0120772 -1.63727e-17)
(0.425554 -0.0119269 -1.98282e-17)
(0.419956 -0.0106492 -1.66606e-17)
(0.4161 -0.0103731 -1.95857e-17)
(0.410285 -0.00888566 -1.67878e-17)
(0.406949 -0.00821995 -1.9394e-17)
(0.401477 -0.0069632 -1.6853e-17)
(0.3981 -0.00634386 -1.91556e-17)
(0.392784 -0.00481135 -1.69955e-17)
(0.389903 -0.00418646 -1.89167e-17)
(0.384542 -0.00316923 -1.70224e-17)
(0.380899 -0.0020449 -1.86862e-17)
(0.376662 0.000420882 -1.69732e-17)
(0.375496 0.00131832 -1.85324e-17)
(0.371697 0.00198724 -1.69562e-17)
(0.369148 0.00228334 -1.82786e-17)
(0.364216 0.00325222 -1.68547e-17)
(0.361374 0.00493439 -1.81239e-17)
(0.358481 0.00642054 -1.68488e-17)
(0.356224 0.00716178 -1.78542e-17)
(0.352723 0.0089606 -1.67154e-17)
(0.351731 0.0105931 -1.76934e-17)
(0.349825 0.0117881 -1.66491e-17)
(0.348579 0.0130981 -1.75781e-17)
(0.347175 0.0147425 -1.65684e-17)
(0.347175 0.0159641 -1.75151e-17)
(0.346082 0.017141 -1.65602e-17)
(0.345865 0.0185777 -1.73085e-17)
(0.345731 0.01987 -1.6969e-17)
(0.345818 0.0211749 -1.77004e-17)
(0.346168 0.0227066 -1.6986e-17)
(0.347221 0.0240222 -1.78687e-17)
(0.347867 0.0253131 -1.70172e-17)
(0.349229 0.0267874 -1.73059e-17)
(0.350676 0.028116 -1.75494e-17)
(0.3523 0.029632 -1.80461e-17)
(0.35449 0.0311141 -1.6877e-17)
(0.356758 0.0323827 -1.80942e-17)
(0.358963 0.0337592 -1.74893e-17)
(0.361586 0.0352496 -1.80481e-17)
(0.364385 0.036869 -1.76806e-17)
(0.368225 0.0386246 -1.91867e-17)
(0.372199 0.0401077 -1.84471e-17)
(0.376365 0.0417526 -1.92289e-17)
(0.380796 0.0433762 -1.90992e-17)
(0.385213 0.0449231 -1.90862e-17)
(0.389605 0.0466103 -1.91408e-17)
(0.394387 0.0485066 -1.92998e-17)
(0.400254 0.050617 -1.90888e-17)
(0.406725 0.0524632 -2.19399e-17)
(0.413124 0.0542337 -1.85439e-17)
(0.420068 0.0560753 -2.00666e-17)
(0.427078 0.057896 -1.75023e-17)
(0.434923 0.0597726 -1.9347e-17)
(0.442654 0.061392 -1.83083e-17)
(0.450623 0.0631348 -1.84157e-17)
(0.4587 0.0647791 -1.81514e-17)
(0.467438 0.0665523 -2.07939e-17)
(0.476234 0.0679395 -1.77071e-17)
(0.484918 0.0693222 -1.87985e-17)
(0.493438 0.0711958 -2.25987e-17)
(0.507518 0.0744538 -2.15621e-17)
(0.522531 0.0741424 -2.17015e-17)
(0.528696 0.0714275 -2.16647e-17)
(0.532936 0.0719617 -1.90691e-17)
(0.543512 0.0744194 -2.1559e-17)
(0.555304 0.0747423 -1.87429e-17)
(0.567013 0.074704 -2.22705e-17)
(0.578571 0.073956 -1.74096e-17)
(0.590029 0.073014 -2.22458e-17)
(0.601163 0.0716462 -1.74913e-17)
(0.614001 0.0707578 -2.14808e-17)
(0.626091 0.0679845 -1.73216e-17)
(0.638103 0.0651607 -2.07024e-17)
(0.649313 0.0614998 -1.80975e-17)
(0.661771 0.0584116 -2.00404e-17)
(0.672658 0.0530685 -1.87224e-17)
(0.683881 0.0482684 -2.00657e-17)
(0.693792 0.0420131 -1.8359e-17)
(0.704312 0.0369589 -2.08076e-17)
(0.711687 0.0287663 -1.91608e-17)
(0.719908 0.0230336 -2.08452e-17)
(0.724148 0.013132 -1.98234e-17)
(0.728077 0.00812983 -2.11689e-17)
(0.734375 6.62931e-05 -2.02795e-17)
(0.733662 -0.00668884 -2.17245e-17)
(0.739591 -0.0109302 -2.08509e-17)
(0.741327 -0.0193701 -2.2229e-17)
(0.742543 -0.0236409 -2.15412e-17)
(0.744495 -0.030159 -2.2989e-17)
(0.744948 -0.0339433 -2.23463e-17)
(0.747558 -0.0390409 -2.38027e-17)
(0.748999 -0.0433692 -2.31564e-17)
(0.750604 -0.0487277 -2.43189e-17)
(0.750983 -0.0523011 -2.36918e-17)
(0.752976 -0.056485 -2.50373e-17)
(0.754074 -0.0599782 -2.40402e-17)
(0.756484 -0.0638545 -2.55536e-17)
(0.758449 -0.0678348 -2.47614e-17)
(0.760413 -0.0725424 -2.57502e-17)
(0.761223 -0.0764711 -2.51493e-17)
(0.763032 -0.0801683 -2.63395e-17)
(0.764706 -0.0840961 -2.57815e-17)
(0.766583 -0.0882625 -2.7056e-17)
(0.76831 -0.0925132 -2.64202e-17)
(0.770009 -0.0973989 -2.78968e-17)
(0.770866 -0.10239 -2.68731e-17)
(0.771436 -0.107171 -2.86186e-17)
(0.772038 -0.11181 -2.75058e-17)
(0.772492 -0.11696 -2.91956e-17)
(0.772502 -0.122132 -2.84419e-17)
(0.772114 -0.127683 -2.98628e-17)
(0.771259 -0.132961 -2.97451e-17)
(0.770147 -0.138716 -3.03328e-17)
(0.768379 -0.144326 -3.05138e-17)
(0.766142 -0.150419 -3.11544e-17)
(0.762818 -0.156135 -3.08231e-17)
(0.759313 -0.161367 -3.17419e-17)
(0.755976 -0.166456 -3.15613e-17)
(0.752169 -0.1731 -3.18963e-17)
(0.746527 -0.18003 -3.16896e-17)
(0.739842 -0.187102 -3.24078e-17)
(0.731663 -0.194126 -3.23059e-17)
(0.721992 -0.201461 -3.29526e-17)
(0.710463 -0.207899 -3.2871e-17)
(0.698216 -0.213936 -3.45568e-17)
(0.684577 -0.220263 -3.30388e-17)
(0.668278 -0.228256 -3.62194e-17)
(0.647803 -0.235204 -3.37829e-17)
(0.624918 -0.240878 -3.6259e-17)
(0.59943 -0.243869 -3.44181e-17)
(0.572211 -0.247786 -3.67305e-17)
(0.536801 -0.251331 -3.58516e-17)
(0.495919 -0.250937 -3.70785e-17)
(0.44576 -0.247263 -3.76767e-17)
(0.388577 -0.23628 -3.90208e-17)
(0.328399 -0.213062 -3.83776e-17)
(0.264805 -0.165697 -4.14708e-17)
(0.192818 -0.0969393 -3.9916e-17)
(0.120331 0.0276902 -4.7971e-17)
(0.101506 0.195812 -1.37529e-18)
(0.0815296 0.358973 -9.63251e-18)
(0.196717 0.496017 -2.51348e-17)
(0.296111 0.637758 -3.16466e-17)
(0.434651 0.642474 -3.29034e-17)
(0.564955 0.639173 -3.4062e-17)
(0.652159 0.587938 -3.32581e-17)
(0.694563 0.562966 -3.33724e-17)
(0.73968 0.532216 -3.1382e-17)
(0.776529 0.490375 -3.06367e-17)
(0.80241 0.449009 -2.8857e-17)
(0.820473 0.413246 -2.8435e-17)
(0.833826 0.378666 -2.69238e-17)
(0.84259 0.352656 -2.69826e-17)
(0.848871 0.330039 -2.5704e-17)
(0.853005 0.309106 -2.58778e-17)
(0.855245 0.292018 -2.46116e-17)
(0.856267 0.275093 -2.50069e-17)
(0.855539 0.262199 -2.40612e-17)
(0.853689 0.250061 -2.4653e-17)
(0.85145 0.237971 -2.36383e-17)
(0.848291 0.226652 -2.43904e-17)
(0.844786 0.215859 -2.35695e-17)
(0.840437 0.206279 -2.4301e-17)
(0.835974 0.197373 -2.35335e-17)
(0.831182 0.188674 -2.41783e-17)
(0.826548 0.180448 -2.36763e-17)
(0.821627 0.172541 -2.43444e-17)
(0.817236 0.164535 -2.36025e-17)
(0.812493 0.157214 -2.41636e-17)
(0.80791 0.150102 -2.37546e-17)
(0.803006 0.14313 -2.46005e-17)
(0.798213 0.136651 -2.43817e-17)
(0.792895 0.130696 -2.50686e-17)
(0.787907 0.125177 -2.48244e-17)
(0.782864 0.119375 -2.56705e-17)
(0.778061 0.113728 -2.50936e-17)
(0.773265 0.108145 -2.60495e-17)
(0.769275 0.101418 -2.53321e-17)
(0.764044 0.0956439 -2.61698e-17)
(0.758255 0.0911614 -2.55463e-17)
(0.751958 0.0868418 -2.63546e-17)
(0.745697 0.0828611 -2.57831e-17)
(0.73912 0.0791636 -2.73238e-17)
(0.733147 0.0754253 -2.62846e-17)
(0.727223 0.0717817 -2.76608e-17)
(0.722139 0.0682974 -2.70819e-17)
(0.717284 0.0649411 -2.8101e-17)
(0.71467 0.0614134 -2.71462e-17)
(0.712768 0.056564 -2.79231e-17)
(0.708925 0.052337 -2.73155e-17)
(0.705011 0.0477785 -2.77761e-17)
(0.699749 0.0437912 -2.80066e-17)
(0.693684 0.0404741 -2.81816e-17)
(0.6878 0.0374319 -2.8342e-17)
(0.681915 0.0342145 -2.89224e-17)
(0.676515 0.0313531 -2.90498e-17)
(0.671528 0.0279634 -2.94169e-17)
(0.667126 0.0251345 -2.9888e-17)
(0.662888 0.021655 -2.99256e-17)
(0.65873 0.0189069 -3.02357e-17)
(0.654448 0.015201 -3.04466e-17)
(0.64959 0.0125068 -3.08265e-17)
(0.644594 0.00899479 -3.10244e-17)
(0.640174 0.00674068 -3.12255e-17)
(0.636195 0.00189311 -3.15135e-17)
(0.629266 0.000724551 -3.182e-17)
(0.628048 -0.00175895 -3.20446e-17)
(0.625475 -0.0072133 -3.22761e-17)
(0.619452 -0.00893937 -3.25168e-17)
(0.6152 -0.0126104 -3.28286e-17)
(0.610019 -0.015675 -3.3052e-17)
(0.604597 -0.0195288 -3.36158e-17)
(0.598113 -0.0221383 -3.37186e-17)
(0.592302 -0.0255238 -3.44567e-17)
(0.585721 -0.0288413 -3.43572e-17)
(0.577876 -0.0322121 -3.54253e-17)
(0.568919 -0.0346591 -3.50965e-17)
(0.559595 -0.03731 -3.57301e-17)
(0.549618 -0.0393459 -3.58215e-17)
(0.540307 -0.0416455 -3.68539e-17)
(0.531007 -0.0434909 -3.7419e-17)
(0.521464 -0.0453118 -3.80323e-17)
(0.511775 -0.0464979 -3.76452e-17)
(0.502811 -0.0480888 -3.88563e-17)
(0.492479 -0.0504878 -3.85909e-17)
(0.476885 -0.0516214 -3.90886e-17)
(0.462341 -0.0492137 -3.9925e-17)
(0.457001 -0.0484411 -3.95607e-17)
(0.451416 -0.0509296 -3.97491e-17)
(0.438167 -0.0529779 -3.94037e-17)
(0.42291 -0.0513291 -3.96205e-17)
(0.415053 -0.0495484 -3.80179e-17)
(0.40979 -0.0500567 -4.08639e-17)
(0.40088 -0.051339 -4.08113e-17)
(0.38923 -0.0512171 -3.91483e-17)
(0.378638 -0.0502722 -3.85521e-17)
(0.368966 -0.049747 -3.7738e-17)
(0.359024 -0.0492188 -4.02662e-17)
(0.349605 -0.0485569 -4.0351e-17)
(0.339264 -0.0479128 -4.00536e-17)
(0.329332 -0.047427 -4.03381e-17)
(0.318927 -0.0466197 -4.17865e-17)
(0.309145 -0.0457079 -3.99406e-17)
(0.300091 -0.0448629 -4.19882e-17)
(0.29161 -0.0440436 -4.1659e-17)
(0.28344 -0.0432265 -4.27652e-17)
(0.275308 -0.0423417 -4.15317e-17)
(0.267381 -0.0414692 -4.25487e-17)
(0.25946 -0.0406343 -4.25287e-17)
(0.251511 -0.039657 -4.11769e-17)
(0.243465 -0.0385228 -4.19465e-17)
(0.235168 -0.0372911 -4.25982e-17)
(0.22704 -0.0361053 -4.51501e-17)
(0.218598 -0.0350447 -4.69111e-17)
(0.210104 -0.0339697 -5.03011e-17)
(0.201728 -0.0327274 -4.70701e-17)
(0.193589 -0.0314125 -4.96948e-17)
(0.185713 -0.0300502 -4.54756e-17)
(0.17869 -0.0289949 -4.91997e-17)
(0.171806 -0.0280462 -4.62557e-17)
(0.165198 -0.0270278 -4.59133e-17)
(0.158212 -0.0261879 -4.49774e-17)
(0.151898 -0.0249027 -4.21304e-17)
(0.145964 -0.0230051 -4.30927e-17)
(0.138626 -0.0220009 -4.45628e-17)
(0.131406 -0.0210912 -4.43724e-17)
(0.123722 -0.0197801 -4.19939e-17)
(0.117205 -0.0184307 -4.38141e-17)
(0.109518 -0.0168423 -4.21708e-17)
(0.103152 -0.0155443 -4.40754e-17)
(0.0956248 -0.0142536 -4.31172e-17)
(0.090133 -0.0131045 -4.46976e-17)
(0.0831144 -0.0118431 -4.39884e-17)
(0.0790904 -0.0108626 -4.53317e-17)
(0.0725986 -0.0103131 -4.31676e-17)
(0.0692156 -0.0105448 -4.56292e-17)
(0.0633274 -0.0105122 -4.34248e-17)
(0.0619943 -0.0105472 -4.50028e-17)
(0.0574705 -0.0103031 -4.30913e-17)
(0.0580924 -0.0107851 -4.48692e-17)
(0.0543051 -0.0112525 -4.40389e-17)
(0.0568328 -0.0121196 -4.37163e-17)
(0.0537412 -0.0130905 -4.37336e-17)
(0.0587275 -0.014051 -4.4368e-17)
(0.0558099 -0.0155778 -4.41218e-17)
(0.0631193 -0.0167964 -4.37154e-17)
(0.0594975 -0.0186489 -4.31181e-17)
(0.0695378 -0.020268 -4.38784e-17)
(0.0634558 -0.0221452 -4.28577e-17)
(0.077249 -0.0251573 -4.37681e-17)
(0.0659157 -0.0294646 -4.20405e-17)
(0.0829899 -0.0357938 -4.27473e-17)
(0.0640743 -0.0441686 -4.17007e-17)
(0.0754041 -0.0251853 -4.46296e-17)
(0.104555 -0.0139393 -2.91756e-17)
(0.145838 -0.00168587 -5.27783e-17)
(0.213452 0.0116385 -1.25349e-17)
(0.289754 0.0227273 -5.17821e-17)
(0.376576 0.0280739 -5.76121e-18)
(0.456181 0.0255187 -4.25934e-17)
(0.528667 0.0216807 -4.0585e-18)
(0.574584 0.0184543 -4.241e-17)
(0.63121 0.0143927 -1.77604e-18)
(0.700484 0.0105291 -4.10029e-17)
(0.763647 0.00997307 9.46428e-20)
(0.798005 0.00752021 -2.93728e-17)
(0.814561 0.00785877 1.76036e-17)
(0.821874 0.00596953 -7.20186e-18)
(0.829219 0.00789527 2.24568e-17)
(0.834668 0.00725884 5.61508e-17)
(0.840804 0.0106498 1.92152e-17)
(0.844478 0.0111445 1.8717e-16)
(0.848403 0.0151826 -7.48699e-17)
(0.849465 0.015578 1.97159e-16)
(0.849903 0.0196349 -6.39916e-17)
(0.847456 0.0193919 -3.12102e-17)
(0.846369 0.0229796 -1.17909e-17)
(0.845369 0.0219622 -2.06161e-17)
(0.850922 0.0250688 3.02635e-16)
(0.852018 0.0231617 -4.07357e-16)
(0.853177 0.0250119 -1.05109e-16)
(0.848784 0.0222922 -3.14977e-16)
(0.851544 0.0223184 3.41573e-17)
(0.850598 0.0206766 7.78202e-17)
(0.855366 0.0191158 2.93331e-18)
(0.855374 0.0191098 -5.02068e-18)
(0.850596 0.0206685 6.71032e-17)
(0.851539 0.0223113 2.89043e-17)
(0.848765 0.022285 -2.42013e-16)
(0.853155 0.0250018 2.23901e-18)
(0.852036 0.0231548 -3.89969e-16)
(0.850969 0.0250642 2.80365e-16)
(0.845401 0.0219581 -2.62977e-17)
(0.846295 0.022974 -5.37547e-17)
(0.847329 0.0193922 -6.80383e-17)
(0.849759 0.0196379 -4.04677e-17)
(0.84937 0.0155951 1.79938e-16)
(0.848405 0.0152206 -2.956e-17)
(0.844577 0.0112103 1.6792e-16)
(0.841021 0.0107635 2.7978e-17)
(0.835033 0.00743491 6.14425e-17)
(0.829781 0.00814981 2.9873e-17)
(0.822887 0.00630321 -5.89403e-18)
(0.817424 0.00822073 1.58207e-17)
(0.808785 0.00782209 -2.09126e-17)
(0.795372 0.00999689 5.53452e-18)
(0.766004 0.0104378 -3.52733e-17)
(0.72643 0.0139388 -3.31777e-18)
(0.682467 0.016305 -4.0668e-17)
(0.653285 0.0185103 -4.53003e-18)
(0.624199 0.0195428 -4.00072e-17)
(0.599724 0.0208136 -5.69249e-18)
(0.582376 0.0178049 -3.69448e-17)
(0.567489 0.0149568 -7.11712e-18)
(0.552119 0.00923511 -3.28632e-17)
(0.542284 0.00437564 -1.04804e-17)
(0.533542 -0.000573055 -2.27133e-17)
(0.528356 -0.00662874 -1.80909e-17)
(0.524284 -0.00977201 -2.20276e-17)
(0.513286 -0.0114283 -1.79066e-17)
(0.512905 -0.0132369 -2.20009e-17)
(0.50113 -0.0128939 -1.80352e-17)
(0.500908 -0.0140431 -2.18279e-17)
(0.490126 -0.0128657 -1.83119e-17)
(0.489137 -0.0134381 -2.1614e-17)
(0.47983 -0.0118692 -1.85379e-17)
(0.478345 -0.0120946 -2.13996e-17)
(0.470268 -0.0106151 -1.87012e-17)
(0.468142 -0.0105574 -2.1231e-17)
(0.460956 -0.00926892 -1.88209e-17)
(0.458061 -0.00895592 -2.10576e-17)
(0.451498 -0.00762883 -1.89165e-17)
(0.448347 -0.00699388 -2.09274e-17)
(0.442604 -0.00579777 -1.89972e-17)
(0.439012 -0.00508588 -2.07868e-17)
(0.433792 -0.0037452 -1.90868e-17)
(0.430293 -0.0029864 -2.06108e-17)
(0.42532 -0.00182781 -1.9139e-17)
(0.421096 -0.000702634 -2.04306e-17)
(0.417189 0.00128468 -1.9102e-17)
(0.415008 0.00219954 -2.02997e-17)
(0.411656 0.00306972 -1.90836e-17)
(0.408392 0.00367674 -2.00643e-17)
(0.404049 0.00471931 -1.90084e-17)
(0.400595 0.0062778 -1.99307e-17)
(0.397995 0.0077209 -1.88179e-17)
(0.395195 0.00868601 -1.94204e-17)
(0.392226 0.0104641 -1.87309e-17)
(0.39071 0.0120694 -1.92806e-17)
(0.389078 0.013412 -1.86764e-17)
(0.387621 0.0148154 -1.92902e-17)
(0.386581 0.0165107 -1.84709e-17)
(0.386203 0.0178066 -1.91017e-17)
(0.385522 0.0191619 -1.86979e-17)
(0.385211 0.0206578 -1.89925e-17)
(0.385356 0.0221021 -1.87331e-17)
(0.38541 0.0235158 -1.90842e-17)
(0.386068 0.0251673 -1.88163e-17)
(0.38722 0.0265917 -1.90519e-17)
(0.388297 0.0280566 -1.82372e-17)
(0.38977 0.0296361 -1.88998e-17)
(0.391563 0.0311436 -1.84951e-17)
(0.393438 0.0327743 -1.88283e-17)
(0.39607 0.0344223 -1.8952e-17)
(0.398675 0.0358421 -1.92703e-17)
(0.401276 0.0374067 -1.8991e-17)
(0.404168 0.0390336 -1.92725e-17)
(0.407405 0.0408206 -1.88189e-17)
(0.41146 0.0426795 -2.00364e-17)
(0.415883 0.0443301 -1.91631e-17)
(0.42031 0.0460889 -1.99552e-17)
(0.425377 0.0478763 -1.83583e-17)
(0.430465 0.0496211 -1.9571e-17)
(0.435674 0.0515456 -1.95405e-17)
(0.441117 0.0536335 -1.94423e-17)
(0.447756 0.055973 -1.94983e-17)
(0.454995 0.0579619 -1.81394e-17)
(0.462217 0.0600206 -1.83314e-17)
(0.469912 0.0620539 -1.95008e-17)
(0.477703 0.0640887 -1.94192e-17)
(0.486309 0.066138 -1.95086e-17)
(0.494903 0.0679396 -2.0304e-17)
(0.503751 0.069859 -1.87692e-17)
(0.512669 0.0716495 -2.13717e-17)
(0.522284 0.0735738 -2.1463e-17)
(0.531926 0.0751271 -2.16655e-17)
(0.541575 0.0767021 -2.17497e-17)
(0.551055 0.0786281 -2.03705e-17)
(0.565637 0.0818236 -2.04982e-17)
(0.580951 0.0815694 -2.11556e-17)
(0.588357 0.0790487 -2.02508e-17)
(0.594044 0.0796046 -2.11679e-17)
(0.605375 0.0820195 -2.05213e-17)
(0.617844 0.0822484 -2.20165e-17)
(0.630323 0.0821562 -2.24838e-17)
(0.642553 0.0812586 -2.02091e-17)
(0.654733 0.0801761 -2.26185e-17)
(0.66651 0.078559 -2.03813e-17)
(0.679781 0.0773784 -2.20167e-17)
(0.692118 0.0742771 -2.12337e-17)
(0.704462 0.0710675 -2.17936e-17)
(0.71579 0.0669148 -2.05137e-17)
(0.728156 0.0634244 -2.22417e-17)