/*--------------------------------*- C++ -*----------------------------------*\
| =========                 |                                                 |
| \\      /  F ield         | OpenFOAM: The Open Source CFD Toolbox           |
|  \\    /   O peration     | Version:  v2006                                 |
|   \\  /    A nd           | Website:  www.openfoam.com                      |
|    \\/     M anipulation  |                                                 |
\*---------------------------------------------------------------------------*/
FoamFile
{
    version     2.0;
    format      ascii;
    class       volScalarField;
    location    "185";
    object      T;
}
// * * * * * * * * * * * * * * * * * * * * * * * * * * * * * * * * * * * * * //

dimensions      [0 0 0 1 0 0 0];


internalField   nonuniform List<scalar> 
93840
(
0.997991
0.98966
1.0066
1.00336
0.990948
0.998468
0.993069
0.998927
0.995742
1.00418
1.00199
1.00398
1.00551
1.00578
1.0045
1.00464
1.00614
1.00489
1.00791
1.00712
1.01472
1.01965
1.02702
1.02714
1.0312
1.02889
1.02936
1.02664
1.02539
1.02716
1.02854
1.03544
1.03433
1.03113
1.03578
1.03359
1.03665
1.03522
1.03757
1.03662
1.03843
1.03761
1.03909
1.03844
1.03976
1.03929
1.04056
1.04014
1.04113
1.04101
1.04177
1.04155
1.04241
1.04245
1.04299
1.04279
1.04349
1.0431
1.0437
1.04411
1.04457
1.04448
1.04484
1.04477
1.04507
1.04516
1.04538
1.04515
1.04542
1.04542
1.0456
1.04554
1.04564
1.04544
1.04552
1.04534
1.04539
1.04526
1.04526
1.04508
1.04509
1.04492
1.04488
1.04461
1.04442
1.04417
1.04394
1.04368
1.04348
1.04323
1.0429
1.04251
1.04214
1.04169
1.04121
1.04062
1.04004
1.03941
1.03878
1.03804
1.03728
1.03654
1.03586
1.03424
1.03233
1.03193
1.03188
1.03071
1.02924
1.02777
1.02627
1.02478
1.02332
1.02143
1.01964
1.01782
1.01617
1.01406
1.01221
1.01012
1.00842
1.00631
1.00521
1.00365
1.00318
1.00343
1.00218
1.00355
1.00285
1.00315
1.00436
1.00424
1.0059
1.00551
1.00683
1.00641
1.00801
1.00782
1.00919
1.00907
1.00963
1.00964
1.01041
1.0107
1.01119
1.01168
1.01185
1.01238
1.01276
1.01354
1.01396
1.01454
1.01502
1.01579
1.0166
1.01752
1.01838
1.01927
1.02059
1.02213
1.02297
1.02311
1.02426
1.02663
1.02833
1.02965
1.03152
1.03343
1.03547
1.03853
1.04157
1.04476
1.04829
1.05132
1.05502
1.06036
1.06571
1.07144
1.07659
1.08192
1.08507
1.08642
1.08286
1.06036
1.04143
1.00222
0.969663
0.940617
0.93048
0.929964
0.909289
0.890948
0.879213
0.878844
0.858728
0.868212
0.870781
0.875068
0.868176
0.871563
0.878461
0.882464
0.88606
0.888942
0.893138
0.897119
0.901322
0.904503
0.908398
0.91178
0.915731
0.91862
0.921565
0.92407
0.927403
0.930488
0.933879
0.936074
0.938192
0.939223
0.941365
0.942469
0.945463
0.948082
0.951546
0.953618
0.95584
0.957552
0.961085
0.962541
0.963765
0.962714
0.962439
0.962089
0.962969
0.963184
0.96521
0.964085
0.964665
0.964023
0.965107
0.962952
0.964543
0.962504
0.964338
0.963418
0.96495
0.962797
0.967961
0.964546
0.962502
0.96464
0.961645
0.964384
0.959694
0.963517
0.958221
0.962795
0.965398
0.984505
1.02666
1.06136
1.0658
1.06453
1.06294
1.06168
1.0607
1.05997
1.05993
1.05983
1.05893
1.05822
1.05842
1.05893
1.05877
1.05845
1.05851
1.05892
1.05924
1.05952
1.05983
1.0602
1.06058
1.06099
1.06142
1.06186
1.06223
1.06264
1.06299
1.06341
1.06372
1.06414
1.0644
1.06483
1.06504
1.06549
1.06564
1.06611
1.06622
1.0667
1.06675
1.06726
1.06726
1.0678
1.06776
1.06833
1.06823
1.0688
1.06867
1.06923
1.06907
1.06965
1.06944
1.07003
1.06978
1.07038
1.0701
1.07071
1.07041
1.07101
1.07069
1.0713
1.07097
1.07157
1.07122
1.07184
1.07146
1.07207
1.0717
1.07229
1.07189
1.07264
1.07176
1.07338
1.0709
1.07426
1.06938
1.0644
1.05655
1.04811
1.03883
1.03413
1.02891
1.03109
1.02759
1.028
1.02103
1.01588
1.00725
1.00745
1.0049
1.00599
1.00448
1.00451
1.0057
1.00543
1.00409
1.00198
1.00414
0.995835
0.998953
0.9931
0.998799
0.990872
1.00333
1.00675
0.989531
0.998098
0.998114
0.989557
1.00674
1.0033
0.990862
0.998666
0.993088
0.998922
0.995812
1.00412
1.00196
1.00417
1.00546
1.00585
1.00458
1.00441
1.00613
1.00498
1.00736
1.00659
1.01336
1.01791
1.02562
1.02592
1.03025
1.0295
1.03197
1.03128
1.03251
1.0312
1.03167
1.0307
1.03213
1.03284
1.03412
1.03455
1.03564
1.0359
1.03697
1.0371
1.03811
1.03808
1.03907
1.03896
1.03998
1.03984
1.0409
1.04075
1.04163
1.04167
1.04237
1.04234
1.04314
1.0432
1.04371
1.04371
1.04442
1.04412
1.04465
1.04509
1.0456
1.04553
1.04587
1.04583
1.04614
1.04622
1.04643
1.04623
1.04647
1.04646
1.04662
1.04655
1.0466
1.04639
1.04642
1.0462
1.04621
1.04602
1.04598
1.04574
1.04569
1.04545
1.04533
1.04498
1.0447
1.04436
1.04403
1.04366
1.04334
1.04296
1.04247
1.04193
1.04138
1.04075
1.04006
1.03926
1.03844
1.03758
1.03669
1.03566
1.03461
1.03356
1.03249
1.03044
1.02819
1.02755
1.02713
1.02547
1.02353
1.02157
1.01957
1.01755
1.01556
1.01307
1.01075
1.00838
1.00622
1.00354
1.00122
0.998646
0.996584
0.99411
0.992874
0.991102
0.990708
0.99094
0.989716
0.991308
0.990553
0.991181
0.992495
0.9925
0.994348
0.994056
0.995654
0.995336
0.997216
0.99707
0.998718
0.998584
0.99938
0.999462
1.00047
1.00082
1.00156
1.0022
1.00261
1.00336
1.00396
1.00495
1.00566
1.00652
1.0073
1.0084
1.00955
1.01088
1.01211
1.01347
1.01531
1.0173
1.01862
1.01953
1.02169
1.02476
1.02703
1.02921
1.03183
1.03434
1.03752
1.04181
1.04569
1.04957
1.05338
1.05716
1.06197
1.06744
1.07206
1.0767
1.08161
1.08642
1.08905
1.09035
1.08316
1.0711
1.05661
1.02487
0.991453
0.959358
0.938479
0.93045
0.905859
0.880348
0.860962
0.862671
0.841759
0.839697
0.833126
0.836144
0.830877
0.832972
0.836616
0.839503
0.843082
0.846228
0.850346
0.854266
0.858884
0.862575
0.866994
0.870728
0.875342
0.878811
0.882283
0.885127
0.888831
0.892393
0.896549
0.899228
0.902021
0.903504
0.905981
0.907293
0.91075
0.913684
0.91781
0.920424
0.9233
0.925416
0.929654
0.931638
0.933729
0.933007
0.933022
0.932772
0.933899
0.933909
0.936552
0.935373
0.936338
0.935503
0.936948
0.934439
0.936288
0.934161
0.935967
0.935068
0.936989
0.934795
0.9399
0.937417
0.934348
0.937257
0.933662
0.936864
0.931567
0.935634
0.930105
0.935042
0.935355
0.963065
1.00575
1.05011
1.05979
1.06049
1.05982
1.05916
1.05864
1.05828
1.05862
1.05885
1.05812
1.05754
1.05794
1.05869
1.05872
1.05854
1.05874
1.05932
1.05981
1.06025
1.06073
1.06124
1.06178
1.06233
1.06291
1.06349
1.06401
1.06456
1.06504
1.06559
1.06604
1.06656
1.06696
1.06748
1.06782
1.06832
1.06861
1.06911
1.06935
1.06984
1.07003
1.07051
1.07066
1.07115
1.07126
1.07174
1.07181
1.07227
1.07231
1.07275
1.07276
1.07318
1.07317
1.07357
1.07353
1.07392
1.07387
1.07425
1.07418
1.07454
1.07446
1.07481
1.07472
1.07506
1.07496
1.07529
1.07518
1.0755
1.07539
1.0757
1.07558
1.07597
1.07567
1.07652
1.07572
1.07711
1.0768
1.07581
1.07174
1.06796
1.0585
1.05158
1.04002
1.03601
1.02991
1.02941
1.02299
1.01781
1.00814
1.00788
1.00473
1.00588
1.00451
1.0044
1.00568
1.0055
1.00395
1.00206
1.00413
0.99575
0.998887
0.993111
0.998484
0.990994
1.00332
1.00667
0.989758
0.998001
0.998029
0.989622
1.00655
1.00339
0.990965
0.998529
0.993069
0.998802
0.995888
1.0041
1.00204
1.00415
1.00559
1.00594
1.00458
1.00456
1.00644
1.00505
1.00777
1.00653
1.01187
1.01583
1.02387
1.02458
1.02875
1.028
1.03067
1.02941
1.03105
1.03038
1.03238
1.03253
1.03231
1.03302
1.03424
1.03392
1.03551
1.0352
1.03662
1.03647
1.03763
1.03756
1.03854
1.03853
1.03944
1.03946
1.04036
1.0404
1.04112
1.04133
1.04192
1.04202
1.04272
1.04292
1.04329
1.04338
1.04405
1.04389
1.04429
1.04477
1.04523
1.04521
1.04552
1.04552
1.04578
1.04588
1.04606
1.04586
1.04604
1.04604
1.04615
1.04608
1.04609
1.04588
1.04583
1.0456
1.04555
1.04533
1.04522
1.04494
1.04482
1.04452
1.04433
1.04391
1.04356
1.04313
1.0427
1.04225
1.04181
1.04131
1.0407
1.04001
1.03931
1.03851
1.03766
1.03666
1.03565
1.03458
1.03345
1.03219
1.03088
1.02956
1.02821
1.02586
1.02336
1.02241
1.02164
1.01962
1.01733
1.01497
1.01259
1.01019
1.00782
1.00493
1.00227
0.999542
0.997081
0.994083
0.991554
0.988755
0.986592
0.983997
0.982811
0.981074
0.980771
0.98091
0.979894
0.981512
0.980896
0.981781
0.983138
0.983415
0.985446
0.985271
0.98706
0.986839
0.988893
0.988903
0.9907
0.990701
0.991803
0.992043
0.993334
0.993875
0.994938
0.995752
0.996513
0.997406
0.998457
0.999723
1.00077
1.00191
1.00304
1.00443
1.00598
1.00761
1.00933
1.01096
1.01298
1.01527
1.01716
1.01879
1.02088
1.02321
1.0253
1.02821
1.03143
1.03433
1.03716
1.04014
1.04334
1.04748
1.05174
1.05551
1.0598
1.06463
1.06969
1.07503
1.07931
1.08449
1.08587
1.08753
1.0816
1.06887
1.04786
1.01996
0.989656
0.961436
0.940516
0.934292
0.91039
0.889232
0.866999
0.86509
0.842843
0.846127
0.835417
0.83419
0.827479
0.826545
0.828957
0.828462
0.829892
0.830725
0.832743
0.834488
0.837584
0.839362
0.842803
0.845515
0.84902
0.851588
0.854655
0.857043
0.860341
0.863514
0.867709
0.870291
0.873296
0.874571
0.877311
0.878637
0.882254
0.885171
0.889382
0.892266
0.89553
0.897829
0.902384
0.904753
0.907218
0.906979
0.907688
0.907463
0.908833
0.909258
0.911962
0.911137
0.912283
0.911507
0.913131
0.911086
0.912955
0.910779
0.912871
0.911882
0.9138
0.911682
0.916558
0.915043
0.911814
0.914791
0.911225
0.914332
0.910002
0.912528
0.909235
0.910598
0.917004
0.940306
0.991179
1.03338
1.04832
1.05151
1.05235
1.05274
1.05302
1.05329
1.0542
1.05488
1.05444
1.05413
1.05481
1.05584
1.05607
1.05607
1.05646
1.05723
1.05789
1.0585
1.05913
1.05978
1.06046
1.06115
1.06187
1.06257
1.06322
1.06388
1.06449
1.06513
1.0657
1.06632
1.06684
1.06743
1.06789
1.06845
1.06886
1.06939
1.06975
1.07026
1.07056
1.07105
1.07131
1.07178
1.07202
1.07247
1.07266
1.07307
1.07322
1.07361
1.07373
1.0741
1.07419
1.07453
1.0746
1.07491
1.07497
1.07527
1.07531
1.07558
1.07561
1.07587
1.07589
1.07613
1.07614
1.07637
1.07637
1.07659
1.07658
1.07679
1.07679
1.07701
1.077
1.07732
1.07731
1.07789
1.07825
1.07769
1.07657
1.0752
1.06884
1.06378
1.05203
1.04422
1.03414
1.03134
1.02463
1.01956
1.00873
1.00787
1.00489
1.00584
1.00444
1.00442
1.00561
1.0054
1.00401
1.00203
1.00402
0.995821
0.998817
0.993101
0.998722
0.990766
1.0032
1.00681
0.989574
0.998043
0.997944
0.989582
1.00673
1.00329
0.990893
0.998643
0.993055
0.998758
0.995829
1.00419
1.00201
1.00419
1.00552
1.00596
1.00469
1.00452
1.00638
1.00498
1.00745
1.00622
1.01135
1.01425
1.02232
1.02327
1.02745
1.02707
1.03002
1.02914
1.03067
1.02983
1.03086
1.0307
1.03202
1.03208
1.03313
1.03346
1.03439
1.03472
1.0356
1.03588
1.03671
1.03691
1.0377
1.03786
1.03866
1.03877
1.03958
1.03971
1.04036
1.04062
1.04117
1.04132
1.042
1.04223
1.04253
1.04268
1.04332
1.04325
1.04358
1.04405
1.0445
1.04448
1.0448
1.04479
1.04504
1.04511
1.04528
1.04511
1.04522
1.04521
1.04528
1.04522
1.04519
1.04497
1.04487
1.04461
1.04451
1.04426
1.04411
1.04379
1.04362
1.04327
1.04302
1.04254
1.04212
1.04163
1.04113
1.04058
1.04006
1.03945
1.03874
1.03794
1.03712
1.03619
1.03518
1.03404
1.03287
1.03162
1.03031
1.02887
1.02737
1.02583
1.02426
1.02171
1.01903
1.01784
1.01678
1.01449
1.01196
1.00934
1.00671
1.00405
1.00144
0.998321
0.995471
0.99256
0.98995
0.986819
0.984231
0.98138
0.97923
0.976652
0.975554
0.973823
0.973723
0.973896
0.973097
0.974747
0.974315
0.975344
0.976773
0.977077
0.979153
0.979198
0.981144
0.98113
0.983333
0.983557
0.985519
0.985675
0.986897
0.987322
0.988782
0.98949
0.990867
0.991998
0.993087
0.994346
0.995613
0.997076
0.998528
0.999906
1.00138
1.00307
1.00489
1.00667
1.00844
1.0103
1.01257
1.0147
1.01676
1.01844
1.0208
1.02327
1.02577
1.02841
1.03127
1.03418
1.03743
1.04077
1.04431
1.0484
1.05227
1.05635
1.0607
1.06566
1.07048
1.07604
1.07982
1.08356
1.08543
1.08607
1.07911
1.06831
1.05428
1.03013
1.00403
0.979446
0.954331
0.942414
0.917461
0.898221
0.876877
0.872455
0.850823
0.84582
0.83582
0.834471
0.830025
0.827507
0.827183
0.825634
0.827777
0.827777
0.829292
0.829351
0.831629
0.831893
0.834303
0.835754
0.83755
0.838613
0.840472
0.841727
0.84408
0.846088
0.849502
0.851228
0.853886
0.855188
0.857272
0.858398
0.861956
0.864713
0.868817
0.871678
0.875036
0.87734
0.88198
0.884312
0.887414
0.887338
0.888245
0.88853
0.89011
0.890258
0.893538
0.892841
0.894325
0.893733
0.895465
0.893399
0.895396
0.893726
0.895473
0.894989
0.896914
0.895465
0.899572
0.898816
0.895267
0.898456
0.895509
0.897855
0.89437
0.895948
0.894434
0.893651
0.901629
0.923588
0.976552
1.01954
1.03618
1.04141
1.04383
1.04543
1.04663
1.04764
1.04917
1.05034
1.05027
1.05027
1.05125
1.05254
1.05301
1.05321
1.05378
1.05472
1.05554
1.0563
1.05707
1.05786
1.05867
1.05947
1.0603
1.06111
1.06186
1.06261
1.06333
1.06406
1.06473
1.06542
1.06603
1.06669
1.06725
1.06787
1.06836
1.06894
1.06938
1.06993
1.07031
1.07082
1.07116
1.07165
1.07196
1.07242
1.07267
1.07309
1.0733
1.07369
1.07387
1.07423
1.07438
1.07471
1.07483
1.07514
1.07524
1.07553
1.07561
1.07588
1.07594
1.07619
1.07624
1.07647
1.07651
1.07673
1.07676
1.07697
1.077
1.07719
1.07722
1.07744
1.07746
1.07777
1.07785
1.07817
1.07868
1.07848
1.07817
1.07759
1.07386
1.07044
1.06088
1.05282
1.0405
1.03427
1.02655
1.02132
1.00976
1.00808
1.00473
1.00572
1.00449
1.00436
1.00558
1.00543
1.00392
1.00205
1.0042
0.995776
0.998819
0.993189
0.998633
0.990996
1.00328
1.0067
0.989789
0.998038
0.998141
0.989665
1.00658
1.00345
0.991008
0.998551
0.993141
0.998696
0.995971
1.00418
1.00211
1.00418
1.0056
1.00607
1.00468
1.00471
1.00658
1.00497
1.00775
1.0063
1.01052
1.01264
1.02063
1.02197
1.02611
1.02572
1.02845
1.02764
1.02963
1.02922
1.03067
1.03074
1.03119
1.03176
1.03245
1.03274
1.03366
1.03381
1.03476
1.03491
1.03579
1.03595
1.03674
1.0369
1.03768
1.03783
1.03858
1.03878
1.03935
1.03967
1.0402
1.04036
1.04101
1.0413
1.04152
1.04165
1.0423
1.04234
1.04261
1.04305
1.04346
1.04346
1.04377
1.04377
1.04398
1.04406
1.04419
1.04403
1.04411
1.0441
1.04412
1.04404
1.04398
1.04375
1.0436
1.04332
1.04317
1.04289
1.04268
1.04233
1.0421
1.04171
1.04139
1.04087
1.04038
1.03981
1.03923
1.03861
1.03799
1.03729
1.03647
1.03556
1.03462
1.03356
1.03242
1.03114
1.02981
1.0284
1.02693
1.02531
1.02364
1.02193
1.02017
1.01744
1.01461
1.01319
1.01188
1.00939
1.00667
1.00385
1.00105
0.998233
0.995473
0.992224
0.989293
0.986304
0.983655
0.980493
0.977958
0.975161
0.973117
0.970619
0.969691
0.968133
0.968067
0.968264
0.96767
0.969291
0.969116
0.970223
0.971793
0.972365
0.974614
0.974774
0.976867
0.977033
0.979383
0.979734
0.981806
0.982258
0.983947
0.984639
0.986422
0.987388
0.989029
0.990373
0.991709
0.993006
0.994621
0.996197
0.997712
0.999128
1.00075
1.00239
1.00423
1.00589
1.00798
1.00994
1.01205
1.01402
1.01617
1.01815
1.02033
1.0227
1.02511
1.02763
1.03062
1.03364
1.03668
1.04
1.04329
1.04694
1.05086
1.05493
1.059
1.06394
1.06829
1.07417
1.07862
1.08245
1.08407
1.08454
1.07757
1.06805
1.05164
1.03064
1.00475
0.980789
0.961213
0.948029
0.926358
0.90754
0.884804
0.877659
0.859356
0.858852
0.843625
0.841651
0.836242
0.836297
0.832028
0.83478
0.833037
0.833806
0.833984
0.83449
0.834986
0.837078
0.836724
0.837972
0.839147
0.839091
0.84057
0.840496
0.842105
0.8425
0.844488
0.844665
0.846054
0.846047
0.847127
0.846725
0.8492
0.851034
0.854174
0.856458
0.859417
0.861344
0.865621
0.867909
0.870642
0.870862
0.871965
0.872201
0.873698
0.87444
0.877497
0.877093
0.8786
0.878226
0.879986
0.878465
0.880506
0.878882
0.880577
0.880325
0.882089
0.880649
0.884617
0.884409
0.881252
0.884057
0.881356
0.883639
0.881058
0.881572
0.881087
0.87954
0.887776
0.908652
0.962428
1.00682
1.02274
1.02976
1.03365
1.03653
1.03882
1.04071
1.04297
1.04474
1.04514
1.04555
1.04689
1.0485
1.04924
1.04968
1.05048
1.05162
1.05263
1.05356
1.05449
1.05543
1.05637
1.0573
1.05826
1.05918
1.06005
1.0609
1.06172
1.06254
1.06331
1.06409
1.0648
1.06553
1.06617
1.06686
1.06744
1.06808
1.0686
1.0692
1.06965
1.0702
1.0706
1.07113
1.0715
1.07199
1.0723
1.07274
1.073
1.07341
1.07364
1.07401
1.0742
1.07454
1.0747
1.07501
1.07515
1.07544
1.07556
1.07583
1.07593
1.07617
1.07626
1.07649
1.07656
1.07677
1.07683
1.07703
1.0771
1.07728
1.07736
1.07754
1.07765
1.07788
1.07806
1.07835
1.07872
1.07882
1.0789
1.07847
1.07668
1.07397
1.06742
1.06028
1.0476
1.03869
1.02896
1.02337
1.01065
1.00842
1.0046
1.0057
1.00424
1.00436
1.00546
1.00537
1.00394
1.00197
1.00403
0.995753
0.998812
0.993131
0.99858
0.990655
1.00316
1.00683
0.989524
0.998043
0.997866
0.989558
1.00676
1.00331
0.990892
0.998626
0.993111
0.998618
0.995982
1.0042
1.00204
1.00428
1.00553
1.00613
1.00484
1.00471
1.00664
1.00497
1.00758
1.00603
1.01026
1.01106
1.01879
1.0203
1.02458
1.0245
1.02746
1.02695
1.02848
1.0281
1.02918
1.02928
1.03021
1.03045
1.03126
1.03164
1.03237
1.03277
1.03348
1.03384
1.03454
1.03484
1.03552
1.03576
1.03648
1.03667
1.03737
1.0376
1.03815
1.03847
1.03901
1.03915
1.03981
1.04012
1.0403
1.04039
1.04106
1.04118
1.04142
1.0418
1.04218
1.0422
1.0425
1.04251
1.0427
1.04276
1.04287
1.04272
1.04275
1.04272
1.0427
1.0426
1.04252
1.04226
1.04208
1.04177
1.04157
1.04125
1.041
1.04061
1.04032
1.03988
1.0395
1.03892
1.03836
1.03773
1.03708
1.03637
1.03566
1.03486
1.03394
1.03292
1.03186
1.03067
1.0294
1.02798
1.02651
1.02495
1.02333
1.02156
1.01974
1.01786
1.01594
1.01307
1.01012
1.00852
1.00699
1.00434
1.00151
0.998565
0.995679
0.992781
0.989963
0.986677
0.983761
0.980794
0.978169
0.975076
0.972673
0.970018
0.9681
0.965756
0.964953
0.963474
0.963717
0.96399
0.963635
0.96537
0.965445
0.966791
0.968511
0.969172
0.971677
0.972167
0.974638
0.975069
0.977681
0.978447
0.980809
0.981522
0.98316
0.984081
0.985937
0.986964
0.988696
0.990186
0.991684
0.993273
0.994736
0.996242
0.99787
0.999237
1.00078
1.00249
1.00439
1.00625
1.00801
1.00991
1.01225
1.01432
1.01648
1.01828
1.02062
1.02313
1.02567
1.02833
1.03115
1.03408
1.03697
1.04064
1.04386
1.04823
1.05156
1.05606
1.05949
1.06464
1.06815
1.07373
1.07685
1.08127
1.0828
1.08333
1.0765
1.06693
1.0544
1.03764
1.01639
0.992365
0.972113
0.957599
0.936586
0.914418
0.89318
0.889215
0.868678
0.85787
0.845888
0.846464
0.840801
0.836177
0.833438
0.832864
0.835486
0.83362
0.835143
0.834428
0.836401
0.836097
0.838495
0.838291
0.840125
0.839913
0.841653
0.841479
0.843103
0.843002
0.845041
0.845001
0.845914
0.845264
0.845531
0.844465
0.845755
0.846717
0.848813
0.849678
0.851325
0.852221
0.855558
0.856932
0.859264
0.858686
0.859162
0.859606
0.860792
0.861004
0.864078
0.863968
0.865442
0.865249
0.86665
0.865344
0.867032
0.865992
0.867587
0.867518
0.869201
0.868358
0.871772
0.87206
0.86843
0.871509
0.86936
0.871052
0.868711
0.869393
0.869225
0.867203
0.875295
0.895222
0.94894
0.993971
1.00967
1.01736
1.02229
1.02631
1.02969
1.03255
1.03563
1.03808
1.03904
1.03994
1.04171
1.0437
1.04476
1.0455
1.04655
1.04793
1.04916
1.05029
1.05141
1.05251
1.05362
1.05469
1.05578
1.05683
1.05782
1.05879
1.05972
1.06065
1.06152
1.06239
1.06319
1.06401
1.06475
1.06551
1.06617
1.06688
1.06748
1.06813
1.06866
1.06926
1.06973
1.0703
1.07073
1.07126
1.07162
1.0721
1.07241
1.07284
1.07311
1.07351
1.07374
1.0741
1.0743
1.07463
1.0748
1.0751
1.07525
1.07553
1.07565
1.07591
1.07602
1.07626
1.07635
1.07658
1.07666
1.07687
1.07696
1.07716
1.07725
1.07746
1.07758
1.07782
1.07802
1.07827
1.07863
1.07881
1.079
1.07897
1.0781
1.07625
1.07152
1.06607
1.05433
1.04408
1.0322
1.02567
1.01207
1.00895
1.0046
1.0057
1.00438
1.0043
1.00547
1.00548
1.0038
1.00201
1.00409
0.995689
0.998794
0.99316
0.998573
0.990993
1.00324
1.00676
0.989718
0.998109
0.998153
0.989635
1.00661
1.00348
0.991014
0.998495
0.99302
0.998609
0.996027
1.00434
1.00211
1.00425
1.00564
1.00626
1.00477
1.00498
1.00674
1.00513
1.00781
1.00625
1.00978
1.00988
1.01699
1.01868
1.02304
1.02284
1.02559
1.02533
1.0271
1.02704
1.02819
1.02838
1.02904
1.0295
1.03011
1.03051
1.0312
1.03151
1.03224
1.03252
1.03325
1.0335
1.03419
1.03441
1.03512
1.03533
1.03598
1.03626
1.03675
1.0371
1.03764
1.03775
1.03837
1.03874
1.03889
1.03892
1.0396
1.0398
1.04004
1.04035
1.04069
1.04072
1.04103
1.04101
1.04119
1.04122
1.04132
1.04116
1.04118
1.04113
1.04107
1.04094
1.04081
1.04055
1.04033
1.03999
1.03974
1.03938
1.03909
1.03865
1.03831
1.03781
1.03737
1.03673
1.03611
1.0354
1.03467
1.03388
1.03308
1.03218
1.03116
1.03004
1.02886
1.02756
1.02616
1.02461
1.02301
1.02132
1.01955
1.01765
1.01571
1.01371
1.01165
1.00867
1.00564
1.0039
1.00221
0.999468
0.996581
0.993595
0.990703
0.987817
0.985015
0.981799
0.978979
0.976108
0.973585
0.970592
0.968346
0.965904
0.964176
0.962067
0.961497
0.96037
0.960639
0.961353
0.961263
0.963257
0.963635
0.96511
0.967198
0.968238
0.970891
0.971453
0.974087
0.974711
0.977359
0.977904
0.980172
0.980989
0.982884
0.98383
0.985791
0.986986
0.988605
0.990056
0.991395
0.992907
0.994386
0.996128
0.997598
0.999062
1.00062
1.00243
1.00413
1.006
1.0079
1.01001
1.01198
1.01428
1.01593
1.01845
1.02032
1.02304
1.02527
1.02813
1.0306
1.03416
1.03652
1.04047
1.04302
1.04748
1.05046
1.05534
1.05852
1.06381
1.06746
1.07238
1.07648
1.07972
1.08129
1.08189
1.07424
1.06625
1.05283
1.03888
1.01807
0.998806
0.977566
0.966005
0.942859
0.925121
0.903154
0.900058
0.874087
0.869407
0.858002
0.857986
0.847297
0.84455
0.84152
0.841855
0.842114
0.842207
0.840844
0.842755
0.841848
0.843591
0.843275
0.844721
0.84488
0.845857
0.846411
0.846823
0.847063
0.848654
0.848353
0.849699
0.849146
0.849456
0.848803
0.848686
0.848613
0.849471
0.85094
0.851717
0.852237
0.853033
0.855312
0.855734
0.856559
0.85538
0.854355
0.853588
0.853333
0.853213
0.855228
0.854533
0.855467
0.855114
0.856379
0.855002
0.856682
0.855458
0.856446
0.856689
0.858226
0.857292
0.860332
0.861103
0.857709
0.860594
0.857989
0.860504
0.8577
0.858703
0.857904
0.8568
0.863898
0.883454
0.936234
0.981473
0.996999
1.0048
1.01025
1.01514
1.01949
1.02328
1.0272
1.0304
1.03198
1.03344
1.03571
1.03813
1.03957
1.04064
1.042
1.04365
1.04513
1.04649
1.04782
1.04911
1.05039
1.05163
1.05287
1.05406
1.05519
1.05629
1.05734
1.05838
1.05936
1.06033
1.06124
1.06215
1.06298
1.06383
1.06458
1.06536
1.06605
1.06677
1.06737
1.06803
1.06857
1.0692
1.06969
1.07026
1.07068
1.07119
1.07156
1.07202
1.07234
1.07277
1.07304
1.07342
1.07365
1.07401
1.07421
1.07454
1.07471
1.07501
1.07516
1.07544
1.07557
1.07582
1.07594
1.07618
1.07629
1.07651
1.07662
1.07683
1.07696
1.07717
1.07734
1.07756
1.07779
1.07805
1.07836
1.07859
1.07887
1.079
1.07871
1.07753
1.0743
1.07038
1.06001
1.04992
1.03614
1.02845
1.0136
1.00933
1.00476
1.00572
1.00424
1.00435
1.00532
1.0054
1.00385
1.00201
1.00404
0.995668
0.998829
0.993082
0.99865
0.99064
1.00314
1.00686
0.989501
0.99811
0.997847
0.989596
1.00672
1.00334
0.990877
0.998582
0.993041
0.998563
0.996005
1.00422
1.00207
1.00431
1.00549
1.00624
1.00492
1.0049
1.00684
1.00518
1.00773
1.00599
1.00973
1.00884
1.01519
1.0167
1.0213
1.02152
1.02416
1.02425
1.02543
1.02562
1.02647
1.02683
1.02755
1.02795
1.02861
1.02903
1.02964
1.03006
1.03067
1.03106
1.03168
1.03201
1.03262
1.0329
1.03356
1.03379
1.03441
1.0347
1.03518
1.0355
1.03609
1.03612
1.03674
1.03715
1.03729
1.03725
1.03794
1.03821
1.03845
1.0387
1.03897
1.03906
1.0393
1.03935
1.03946
1.0395
1.03956
1.0394
1.0394
1.03932
1.03924
1.03905
1.03891
1.03861
1.03837
1.03799
1.0377
1.03729
1.03696
1.03648
1.03607
1.03553
1.03503
1.03433
1.03364
1.03286
1.03206
1.03118
1.03029
1.02929
1.02818
1.02695
1.02567
1.02426
1.02275
1.02108
1.01936
1.01755
1.01568
1.01368
1.01164
1.00954
1.00739
1.00435
1.00131
0.999472
0.997664
0.994897
0.992048
0.989118
0.986295
0.983494
0.980768
0.97773
0.975089
0.972455
0.97023
0.967793
0.965847
0.963992
0.962386
0.961292
0.960335
0.960361
0.959703
0.96192
0.96068
0.963922
0.963094
0.965967
0.966829
0.968957
0.970351
0.972111
0.973551
0.975223
0.976931
0.978771
0.980179
0.982024
0.982444
0.984506
0.985243
0.987448
0.988237
0.990708
0.991169
0.99393
0.994179
0.996815
0.99722
0.999868
1.00019
1.00313
1.00389
1.00681
1.00763
1.01079
1.01176
1.01504
1.01599
1.01902
1.02014
1.02378
1.02527
1.02904
1.03075
1.03479
1.03668
1.04123
1.04334
1.04818
1.05066
1.05545
1.05876
1.06346
1.0671
1.07145
1.07475
1.07834
1.07985
1.08038
1.07277
1.06545
1.05576
1.04335
1.02727
1.00917
0.988361
0.974284
0.952412
0.936322
0.91345
0.906339
0.881813
0.877059
0.863678
0.860735
0.84992
0.849088
0.843119
0.845086
0.842669
0.843333
0.842757
0.84415
0.843229
0.844755
0.844416
0.846454
0.846298
0.848086
0.847937
0.849237
0.848727
0.850379
0.850269
0.851945
0.85127
0.852134
0.851287
0.850775
0.851259
0.851773
0.853155
0.853754
0.854608
0.855146
0.857391
0.857991
0.858394
0.857104
0.855099
0.854553
0.853226
0.852164
0.852802
0.851754
0.851295
0.850645
0.850124
0.848776
0.849105
0.848091
0.84868
0.84867
0.84962
0.849031
0.851411
0.852691
0.8482
0.851725
0.848746
0.851401
0.847757
0.850422
0.847641
0.848916
0.853357
0.872833
0.924649
0.969797
0.984781
0.99245
0.998102
1.0035
1.00858
1.01318
1.01786
1.02179
1.02403
1.0261
1.02889
1.03179
1.03365
1.0351
1.0368
1.03875
1.04052
1.04214
1.0437
1.04521
1.04669
1.04812
1.04953
1.05087
1.05215
1.05338
1.05457
1.05573
1.05684
1.05792
1.05894
1.05995
1.06089
1.06182
1.06267
1.06354
1.06431
1.0651
1.06579
1.06652
1.06713
1.06782
1.06837
1.06899
1.06947
1.07004
1.07045
1.07096
1.07132
1.07178
1.0721
1.07252
1.07278
1.07317
1.0734
1.07375
1.07396
1.07428
1.07446
1.07475
1.07491
1.07518
1.07533
1.07558
1.07572
1.07596
1.07609
1.07632
1.07647
1.07671
1.07689
1.07714
1.07737
1.07763
1.07793
1.0782
1.07848
1.07874
1.07872
1.07835
1.07591
1.07324
1.06464
1.05547
1.04066
1.03164
1.01574
1.00976
1.00489
1.00569
1.00422
1.00429
1.00531
1.00545
1.00373
1.00206
1.0041
0.995669
0.998813
0.993018
0.998574
0.990916
1.00323
1.00681
0.989779
0.998102
0.998107
0.989649
1.00653
1.00354
0.990997
0.998443
0.993063
0.998465
0.996067
1.00432
1.00211
1.00425
1.00558
1.00632
1.0048
1.00522
1.00691
1.00538
1.00794
1.00639
1.0094
1.0084
1.01361
1.01486
1.0194
1.01977
1.0219
1.02258
1.02365
1.02423
1.02493
1.02546
1.02599
1.02654
1.02705
1.02753
1.02808
1.02847
1.02907
1.02942
1.03004
1.03033
1.03095
1.0312
1.03185
1.0321
1.03267
1.03301
1.03344
1.03376
1.03436
1.03437
1.03491
1.03535
1.03553
1.03548
1.0361
1.0364
1.03667
1.03686
1.03711
1.03717
1.03743
1.03746
1.03757
1.03757
1.03761
1.03744
1.03742
1.03732
1.0372
1.03697
1.0368
1.03648
1.0362
1.03579
1.03545
1.03501
1.03463
1.0341
1.03365
1.03304
1.03249
1.03173
1.03098
1.03013
1.02925
1.02829
1.02731
1.02623
1.02503
1.02371
1.02234
1.02083
1.01922
1.01746
1.01564
1.01374
1.01179
1.00973
1.00764
1.00549
1.00329
1.00025
0.99728
0.995422
0.993581
0.990877
0.988118
0.985416
0.982838
0.980372
0.97801
0.975441
0.973156
0.970965
0.969053
0.966965
0.965247
0.963636
0.962243
0.961267
0.960443
0.960402
0.95966
0.961906
0.960829
0.964007
0.963488
0.965802
0.966922
0.969122
0.970737
0.972363
0.973842
0.975295
0.977049
0.978555
0.9798
0.981759
0.982633
0.984663
0.985474
0.9877
0.988334
0.990824
0.991113
0.993844
0.994293
0.997065
0.997423
0.999906
1.00046
1.00307
1.00403
1.00666
1.00779
1.01091
1.01193
1.01515
1.01612
1.01931
1.02057
1.02368
1.02539
1.02877
1.03083
1.03458
1.03685
1.04088
1.04345
1.04755
1.05046
1.05441
1.05826
1.06265
1.06626
1.07043
1.07386
1.07676
1.07829
1.07905
1.07065
1.06338
1.05514
1.04644
1.02989
1.01276
0.993642
0.979559
0.959754
0.942813
0.921945
0.914265
0.891295
0.888305
0.871857
0.869574
0.85878
0.857586
0.852074
0.852498
0.849964
0.85135
0.849832
0.850806
0.84979
0.851322
0.85075
0.852537
0.852276
0.854041
0.853582
0.854627
0.853931
0.854998
0.856002
0.856415
0.856011
0.856621
0.856566
0.8549
0.855991
0.85618
0.857649
0.857997
0.858875
0.859206
0.861436
0.861979
0.862375
0.861377
0.859548
0.858014
0.856817
0.856052
0.856541
0.854757
0.853743
0.852392
0.851957
0.849399
0.848955
0.847094
0.846167
0.845575
0.845742
0.844567
0.845703
0.846989
0.842037
0.845408
0.841396
0.845037
0.839982
0.843118
0.839699
0.841211
0.844769
0.863409
0.914623
0.95928
0.97327
0.980731
0.986345
0.991975
0.997482
1.00263
1.00789
1.01246
1.01533
1.018
1.02133
1.02473
1.02703
1.02889
1.03095
1.03325
1.03533
1.03723
1.03906
1.0408
1.0425
1.04413
1.04573
1.04724
1.04869
1.05007
1.05141
1.0527
1.05394
1.05514
1.05629
1.0574
1.05845
1.05948
1.06044
1.06139
1.06226
1.06314
1.0639
1.06471
1.0654
1.06615
1.06678
1.06746
1.06801
1.06862
1.06909
1.06965
1.07006
1.07057
1.07092
1.07138
1.07168
1.0721
1.07237
1.07275
1.07299
1.07334
1.07355
1.07386
1.07405
1.07434
1.07452
1.07479
1.07496
1.07521
1.07538
1.07562
1.07581
1.07605
1.07626
1.07652
1.07677
1.07705
1.07735
1.07763
1.07794
1.07825
1.07841
1.07851
1.07693
1.07459
1.06838
1.06052
1.04534
1.03539
1.01814
1.0104
1.00497
1.00558
1.00397
1.00431
1.00519
1.00535
1.00384
1.00203
1.00394
0.995588
0.998766
0.99288
0.998468
0.990544
1.00314
1.00687
0.989396
0.998093
0.997891
0.98962
1.00664
1.00337
0.990858
0.998521
0.99306
0.998584
0.996104
1.00431
1.00213
1.00433
1.00551
1.00623
1.00498
1.00514
1.00692
1.00545
1.00785
1.0061
1.00948
1.00772
1.01248
1.0129
1.01716
1.01862
1.02
1.02122
1.02158
1.02258
1.02293
1.0237
1.02415
1.02474
1.02525
1.02572
1.02625
1.02667
1.02721
1.02761
1.02816
1.02851
1.02907
1.02936
1.02998
1.03022
1.03079
1.03111
1.03155
1.03181
1.03245
1.03239
1.03289
1.03337
1.03362
1.03353
1.03408
1.03439
1.0347
1.03486
1.03506
1.03513
1.03534
1.03542
1.03546
1.03546
1.03547
1.03527
1.03525
1.03513
1.03499
1.0347
1.03451
1.03417
1.03386
1.0334
1.03304
1.03255
1.03212
1.03155
1.03104
1.03039
1.02978
1.02896
1.02816
1.02724
1.0263
1.02527
1.02422
1.02305
1.02178
1.02038
1.01894
1.01735
1.01567
1.01384
1.01196
1.01001
1.00803
1.00595
1.00387
1.00174
0.999551
0.996592
0.993806
0.992044
0.990333
0.988154
0.985739
0.983353
0.981177
0.979051
0.977007
0.974758
0.972785
0.970813
0.969088
0.967073
0.965478
0.963826
0.962472
0.961448
0.960749
0.960624
0.960256
0.962072
0.961308
0.964094
0.963868
0.966313
0.967191
0.968999
0.970665
0.972259
0.974058
0.975406
0.977247
0.978823
0.980264
0.982109
0.982785
0.984781
0.985783
0.987574
0.988632
0.990822
0.991226
0.993955
0.994429
0.997009
0.99764
1.00013
1.00076
1.00332
1.00423
1.007
1.00794
1.0109
1.01203
1.01504
1.01655
1.0194
1.02093
1.02409
1.0259
1.0291
1.03126
1.0348
1.03696
1.04104
1.04368
1.04773
1.05079
1.05468
1.05786
1.06227
1.06549
1.06934
1.07246
1.07528
1.07676
1.0776
1.0695
1.0639
1.05731
1.05013
1.0368
1.02014
1.00293
0.987236
0.969152
0.952075
0.931707
0.921895
0.901035
0.892896
0.878643
0.872841
0.863745
0.860823
0.85636
0.853393
0.853368
0.851337
0.852654
0.850744
0.852252
0.851397
0.853361
0.853084
0.855065
0.854779
0.856041
0.855669
0.856804
0.856332
0.85825
0.858138
0.859283
0.858469
0.85923
0.856793
0.858072
0.858164
0.85976
0.860049
0.861034