/*--------------------------------*- C++ -*----------------------------------*\
| =========                 |                                                 |
| \\      /  F ield         | OpenFOAM: The Open Source CFD Toolbox           |
|  \\    /   O peration     | Version:  v2006                                 |
|   \\  /    A nd           | Website:  www.openfoam.com                      |
|    \\/     M anipulation  |                                                 |
\*---------------------------------------------------------------------------*/
FoamFile
{
    version     2.0;
    format      ascii;
    class       volScalarField;
    location    "185";
    object      TMean;
}
// * * * * * * * * * * * * * * * * * * * * * * * * * * * * * * * * * * * * * //

dimensions      [0 0 0 1 0 0 0];


internalField   nonuniform List<scalar> 
93840
(
1.00486
1.00441
1.0053
1.00451
1.00442
1.00415
1.00509
1.00553
1.00597
1.00561
1.00599
1.00606
1.00722
1.00812
1.00994
1.01142
1.01363
1.01522
1.01754
1.01986
1.02453
1.03059
1.03737
1.04088
1.04238
1.04161
1.03996
1.03704
1.03459
1.03368
1.03395
1.03865
1.03836
1.03715
1.04145
1.04015
1.04291
1.04207
1.0441
1.04365
1.04515
1.04481
1.04598
1.04579
1.04674
1.04673
1.04756
1.04756
1.04822
1.04833
1.0489
1.04894
1.04952
1.04973
1.0502
1.05005
1.05043
1.05051
1.05106
1.0512
1.05149
1.05159
1.05204
1.05202
1.05231
1.05238
1.05266
1.05263
1.05292
1.05293
1.05316
1.05319
1.05341
1.05342
1.05364
1.05364
1.05379
1.05381
1.0539
1.0539
1.054
1.05396
1.05405
1.05396
1.05395
1.05389
1.05387
1.05379
1.05377
1.05365
1.05347
1.05321
1.05301
1.0527
1.0524
1.05196
1.0516
1.05114
1.0507
1.05013
1.04955
1.04892
1.04834
1.04677
1.0449
1.04445
1.0444
1.04316
1.04163
1.04003
1.0384
1.03669
1.035
1.03276
1.03058
1.02831
1.02616
1.02346
1.02111
1.01852
1.01626
1.01357
1.01204
1.01004
1.00972
1.00957
1.00822
1.01003
1.00897
1.00948
1.01038
1.01089
1.012
1.01225
1.01283
1.01341
1.01444
1.0149
1.01559
1.01587
1.01616
1.0165
1.01722
1.01767
1.01801
1.01833
1.01859
1.01883
1.01929
1.0199
1.02039
1.02089
1.02145
1.02211
1.02284
1.02359
1.02443
1.02533
1.02649
1.02769
1.0286
1.02937
1.03048
1.03174
1.03315
1.03479
1.03675
1.0387
1.04055
1.04263
1.04548
1.0488
1.05238
1.05572
1.0599
1.06476
1.07017
1.07667
1.08362
1.08999
1.09565
1.10075
1.09979
1.08304
1.06726
1.03147
0.999973
0.976292
0.969853
0.966332
0.946921
0.934184
0.927473
0.923349
0.921519
0.926204
0.92879
0.932344
0.93625
0.940399
0.945348
0.949271
0.952363
0.955068
0.95757
0.960203
0.96231
0.964073
0.965631
0.966729
0.967005
0.967398
0.968135
0.968893
0.970142
0.971809
0.973177
0.974314
0.975439
0.975962
0.975432
0.976607
0.979033
0.981702
0.984539
0.987387
0.989736
0.99181
0.993308
0.99439
0.993487
0.991875
0.992246
0.992538
0.994239
0.996509
0.998575
1.00058
1.00224
1.0036
1.00462
1.00555
1.00654
1.00763
1.00915
1.01064
1.01178
1.0127
1.01515
1.01449
1.01476
1.01673
1.01772
1.0191
1.02054
1.02235
1.02378
1.02544
1.02753
1.02985
1.03221
1.03442
1.03615
1.03778
1.03934
1.04077
1.04188
1.04319
1.04544
1.04724
1.04707
1.04697
1.04838
1.05008
1.05054
1.05043
1.05099
1.05154
1.05146
1.051
1.05119
1.05078
1.05091
1.05152
1.05161
1.05207
1.05241
1.05253
1.05276
1.05282
1.05289
1.05295
1.05313
1.05261
1.05219
1.0511
1.05072
1.05051
1.04985
1.04919
1.04893
1.04802
1.04862
1.04818
1.04833
1.04813
1.04675
1.0487
1.04901
1.04927
1.04938
1.04939
1.04972
1.04956
1.04948
1.04902
1.04824
1.04824
1.0482
1.04804
1.04767
1.04789
1.04832
1.04931
1.05024
1.05127
1.05224
1.05352
1.05464
1.05575
1.05579
1.05652
1.05572
1.05665
1.05575
1.05681
1.0567
1.05477
1.05052
1.0463
1.04238
1.04066
1.03992
1.041
1.04172
1.03888
1.03157
1.0251
1.02007
1.01759
1.01524
1.01365
1.01146
1.00992
1.00813
1.00721
1.00607
1.00598
1.00562
1.00597
1.00555
1.00509
1.00415
1.0044
1.00449
1.00528
1.00439
1.00483
1.00483
1.00439
1.00528
1.0045
1.0044
1.00414
1.00508
1.00555
1.00598
1.00563
1.00599
1.00608
1.00722
1.00813
1.00992
1.01144
1.01362
1.01517
1.01734
1.0192
1.02295
1.02813
1.03476
1.03843
1.04063
1.04243
1.04308
1.04274
1.04213
1.04088
1.04028
1.04
1.04068
1.0423
1.04312
1.04428
1.04505
1.04588
1.04665
1.04725
1.048
1.04838
1.04913
1.0494
1.05012
1.05036
1.05106
1.05124
1.05188
1.05205
1.05265
1.05277
1.05335
1.05354
1.05401
1.05397
1.05441
1.0545
1.05503
1.05515
1.05549
1.0556
1.05601
1.056
1.05629
1.05633
1.05659
1.05654
1.05681
1.0568
1.05699
1.05697
1.05714
1.05709
1.05724
1.05719
1.05729
1.05723
1.05726
1.05717
1.0572
1.05709
1.05707
1.05688
1.05678
1.05662
1.05648
1.0563
1.05614
1.05589
1.05558
1.05515
1.05476
1.05424
1.05373
1.05306
1.05243
1.05167
1.05091
1.04996
1.04898
1.04793
1.04686
1.04474
1.04245
1.04168
1.04117
1.03935
1.03726
1.03506
1.03282
1.03047
1.02811
1.02514
1.0223
1.01932
1.0165
1.01308
1.01016
1.00694
1.0042
1.00105
0.999348
0.997104
0.996883
0.996631
0.995356
0.997403
0.996237
0.99714
0.998131
0.998879
1.00016
1.00056
1.00136
1.00212
1.00334
1.00392
1.00479
1.00517
1.00565
1.00614
1.00704
1.00759
1.00811
1.00858
1.00903
1.00948
1.01017
1.01099
1.01173
1.0125
1.01336
1.01435
1.01542
1.01655
1.01782
1.01918
1.02082
1.0225
1.02403
1.02555
1.02746
1.02956
1.03192
1.03452
1.03746
1.04043
1.04348
1.04678
1.05069
1.0548
1.05913
1.06328
1.06817
1.07341
1.07908
1.08487
1.09046
1.09622
1.10128
1.10423
1.10142
1.0931
1.07682
1.05074
1.02837
0.999565
0.98343
0.971382
0.950877
0.934601
0.922125
0.913099
0.906068
0.905972
0.905116
0.905889
0.907819
0.910354
0.914207
0.917786
0.920859
0.923798
0.92662
0.929694
0.932388
0.934764
0.936853
0.938511
0.939229
0.939911
0.940894
0.941844
0.943199
0.945037
0.946617
0.947982
0.949305
0.950119
0.949674
0.950828
0.953387
0.956349
0.959583
0.962944
0.96586
0.968494
0.970525
0.972094
0.971652
0.970055
0.970524
0.970863
0.972716
0.975319
0.977841
0.980344
0.982542
0.984386
0.98588
0.987205
0.98863
0.990069
0.992064
0.993982
0.995699
0.996908
0.999979
0.999806
1.00022
1.00266
1.00405
1.00592
1.0078
1.01016
1.01212
1.01434
1.01699
1.02003
1.02309
1.02605
1.02848
1.03079
1.03297
1.03508
1.03679
1.03869
1.0416
1.0441
1.04451
1.04476
1.04651
1.0486
1.04945
1.04965
1.05053
1.0515
1.05186
1.0517
1.05207
1.05235
1.05263
1.05319
1.05379
1.05432
1.05489
1.05522
1.05562
1.05586
1.05612
1.05628
1.05657
1.05647
1.05609
1.05552
1.0553
1.05498
1.05468
1.05419
1.05408
1.05358
1.05339
1.05373
1.05352
1.054
1.05345
1.05364
1.05405
1.05445
1.05474
1.05492
1.0551
1.05536
1.05543
1.05569
1.05552
1.05553
1.0556
1.05591
1.05601
1.05645
1.05688
1.05769
1.05808
1.05877
1.0591
1.0598
1.0599
1.06041
1.06012
1.06032
1.05953
1.05994
1.0593
1.06054
1.06007
1.05966
1.05876
1.05679
1.05294
1.05022
1.04655
1.04385
1.04325
1.04196
1.03465
1.02708
1.02097
1.01786
1.01531
1.01366
1.01144
1.00994
1.00812
1.00722
1.00606
1.00599
1.0056
1.00597
1.00554
1.00509
1.00415
1.00442
1.00451
1.00529
1.00441
1.00485
1.00486
1.00441
1.0053
1.00451
1.00443
1.00415
1.00509
1.00553
1.00598
1.00562
1.00601
1.00608
1.00722
1.00812
1.00993
1.0114
1.0136
1.01514
1.01727
1.01892
1.02213
1.02623
1.03187
1.03596
1.03831
1.03981
1.04108
1.04124
1.04178
1.04199
1.04264
1.0435
1.04349
1.04419
1.04569
1.04571
1.04738
1.04731
1.04879
1.04879
1.05002
1.05005
1.05109
1.05116
1.05206
1.05219
1.053
1.05313
1.05382
1.05397
1.0546
1.05471
1.0553
1.05548
1.05595
1.05594
1.05636
1.05645
1.05693
1.05705
1.05737
1.05745
1.05782
1.05779
1.05804
1.05806
1.05829
1.05822
1.05842
1.05838
1.05851
1.05845
1.05855
1.05845
1.05854
1.05842
1.05844
1.05832
1.05829
1.05812
1.05808
1.0579
1.05781
1.05754
1.05736
1.05708
1.05683
1.05652
1.05625
1.05587
1.05543
1.05484
1.05428
1.05357
1.05286
1.05197
1.05109
1.05007
1.04902
1.04777
1.04648
1.04508
1.04366
1.04118
1.03853
1.03738
1.03646
1.0342
1.03168
1.029
1.02629
1.02345
1.02062
1.01715
1.01388
1.01044
1.00722
1.00342
1.00023
0.99673
0.993846
0.990567
0.988895
0.986632
0.986567
0.986292
0.985254
0.987368
0.986359
0.987506
0.988579
0.989565
0.990952
0.991569
0.992532
0.993487
0.994864
0.995623
0.996684
0.997256
0.997962
0.998657
0.999783
1.00055
1.00133
1.00204
1.00277
1.00349
1.00448
1.00558
1.00664
1.00774
1.00895
1.01029
1.01174
1.01324
1.0149
1.01663
1.01861
1.02061
1.02247
1.02426
1.02639
1.02863
1.03107
1.03366
1.03652
1.03936
1.04224
1.04529
1.04891
1.05273
1.05684
1.0608
1.06546
1.07051
1.07609
1.0823
1.08842
1.09409
1.09796
1.10097
1.09833
1.08983
1.07363
1.0529
1.02479
1
0.983321
0.9725
0.952899
0.937872
0.92541
0.916393
0.908555
0.907677
0.905538
0.905208
0.905304
0.906286
0.908264
0.909915
0.91123
0.912376
0.913514
0.915046
0.916376
0.917637
0.918802
0.919769
0.919932
0.92019
0.92084
0.92155
0.922692
0.924359
0.925827
0.927145
0.928384
0.929226
0.928808
0.929825
0.932299
0.935238
0.938523
0.94198
0.945107
0.947945
0.950283
0.952104
0.952052
0.950682
0.951364
0.951853
0.953834
0.956586
0.959344
0.962104
0.964644
0.966812
0.968689
0.97034
0.972145
0.9739
0.976277
0.97852
0.980685
0.982224
0.985644
0.985957
0.986617
0.989413
0.991152
0.993406
0.995634
0.998404
1.00077
1.00341
1.00649
1.01004
1.01359
1.01705
1.02
1.02284
1.02553
1.02814
1.03034
1.03272
1.03609
1.03906
1.0399
1.04055
1.04267
1.04509
1.04623
1.04677
1.04794
1.04923
1.04986
1.04998
1.05045
1.05109
1.05165
1.05234
1.05312
1.05377
1.05448
1.055
1.05554
1.05597
1.0564
1.05673
1.05708
1.05721
1.05695
1.05654
1.05657
1.05654
1.05614
1.05587
1.05583
1.05571
1.05546
1.05564
1.05549
1.05596
1.05586
1.05571
1.05591
1.05615
1.05635
1.05654
1.05669
1.05692
1.05703
1.05731
1.05742
1.05754
1.05766
1.05802
1.05838
1.05892
1.05934
1.05981
1.06011
1.06046
1.06062
1.06087
1.06082
1.06084
1.06055
1.06024
1.05996
1.0597
1.05976
1.06016
1.06053
1.0609
1.06092
1.05977
1.05781
1.05608
1.05258
1.04849
1.04532
1.04409
1.03676
1.02867
1.02171
1.01809
1.01537
1.01369
1.01148
1.00993
1.00813
1.00721
1.00606
1.00597
1.00561
1.00596
1.00555
1.00509
1.00415
1.0044
1.00449
1.00528
1.00439
1.00483
1.00483
1.00439
1.00528
1.0045
1.0044
1.00414
1.00508
1.00555
1.00598
1.00564
1.006
1.00609
1.00722
1.00813
1.00992
1.01143
1.01359
1.01511
1.01717
1.01858
1.02131
1.02506
1.03028
1.03391
1.0369
1.03858
1.04025
1.04077
1.04165
1.04159
1.04228
1.04272
1.04377
1.04447
1.04536
1.04622
1.04701
1.04781
1.04855
1.04924
1.04993
1.0505
1.05115
1.05164
1.05226
1.05271
1.05329
1.05368
1.05421
1.05458
1.05507
1.05538
1.05584
1.05615
1.05653
1.05667
1.05703
1.05722
1.05763
1.05782
1.0581
1.05823
1.05853
1.05856
1.05876
1.05879
1.05895
1.05888
1.05903
1.05897
1.05905
1.05896
1.05901
1.05885
1.05886
1.05868
1.05862
1.05843
1.05831
1.05805
1.05792
1.05764
1.05745
1.05711
1.05685
1.05652
1.05622
1.05584
1.0555
1.05502
1.05447
1.05375
1.05305
1.05218
1.05129
1.0502
1.04911
1.04787
1.04659
1.04509
1.04355
1.04188
1.04017
1.03739
1.03448
1.03304
1.03179
1.02921
1.02638
1.02337
1.02034
1.01716
1.01401
1.01024
1.00672
1.00303
0.999615
0.995645
0.992381
0.988802
0.985932
0.982679
0.981141
0.978939
0.979052
0.978795
0.978007
0.980122
0.979335
0.980633
0.981805
0.98297
0.984454
0.985275
0.986393
0.987531
0.989044
0.989999
0.991238
0.992029
0.992971
0.993903
0.995259
0.99629
0.997384
0.998423
0.999537
1.00065
1.00204
1.00353
1.00502
1.00652
1.00813
1.00981
1.0116
1.01339
1.01531
1.01724
1.0194
1.02151
1.02353
1.02546
1.0277
1.03001
1.03255
1.0352
1.03814
1.04105
1.04412
1.04732
1.05105
1.05489
1.05905
1.06314
1.06785
1.07281
1.07816
1.0838
1.08931
1.09467
1.09817
1.09964
1.09668
1.09125
1.07753
1.05904
1.03634
1.01205
0.994584
0.980373
0.961742
0.945769
0.932324
0.921736
0.912857
0.909911
0.907104
0.905738
0.905462
0.905842
0.907215
0.908424
0.909309
0.909873
0.910384
0.911144
0.911608
0.911919
0.912021
0.911867
0.910989
0.910228
0.909868
0.909642
0.909902
0.910812
0.911678
0.912528
0.91346
0.914107
0.913561
0.914436
0.916766
0.919578
0.92276
0.926125
0.929247
0.932054
0.934468
0.936353
0.936567
0.935376
0.936199
0.936805
0.938852
0.941668
0.944562
0.947458
0.950194
0.952563
0.954687
0.956573
0.958644
0.960641
0.963276
0.965779
0.968265
0.970056
0.973673
0.974424
0.975288
0.97836
0.980383
0.982935
0.985422
0.988494
0.991179
0.994118
0.997534
1.00141
1.00531
1.00914
1.01245
1.01568
1.01873
1.02174
1.02433
1.0271
1.03081
1.03417
1.03539
1.0364
1.03873
1.04134
1.0427
1.04356
1.04503
1.04667
1.04757
1.04792
1.04846
1.04925
1.05005
1.05089
1.05183
1.05261
1.0534
1.05407
1.05473
1.05532
1.05587
1.05636
1.05677
1.05706
1.05702
1.05695
1.05738
1.05732
1.05727
1.0573
1.05719
1.0573
1.05715
1.0571
1.05696
1.05725
1.05714
1.05701
1.05709
1.05728
1.05741
1.0576
1.05772
1.05793
1.05807
1.05837
1.05858
1.05888
1.05914
1.05958
1.05994
1.06041
1.06068
1.06103
1.06119
1.06145
1.06149
1.06161
1.06148
1.06141
1.06105
1.06077
1.06035
1.06014
1.0602
1.06052
1.06116
1.06182
1.06187
1.06095
1.05963
1.05909
1.05683
1.054
1.04895
1.04656
1.03923
1.03036
1.0226
1.01837
1.01544
1.01369
1.01146
1.00995
1.00812
1.00721
1.00605
1.00597
1.00559
1.00596
1.00554
1.00509
1.00415
1.00442
1.0045
1.00529
1.00441
1.00485
1.00486
1.00441
1.0053
1.00452
1.00443
1.00415
1.00508
1.00553
1.00598
1.00563
1.00602
1.00609
1.00723
1.00812
1.00993
1.01139
1.01358
1.01509
1.01714
1.01844
1.02074
1.02343
1.02797
1.03159
1.03447
1.03613
1.03787
1.03851
1.03995
1.04078
1.04153
1.0427
1.04283
1.04411
1.04469
1.04559
1.04641
1.04707
1.04795
1.04849
1.04934
1.0498
1.05058
1.051
1.05172
1.05213
1.05279
1.05317
1.05376
1.05413
1.05467
1.055
1.0555
1.05583
1.05624
1.05642
1.05679
1.05703
1.05744
1.05768
1.05796
1.05816
1.05846
1.05854
1.05872
1.0588
1.05893
1.05892
1.05903
1.059
1.05903
1.05897
1.05897
1.05882
1.05877
1.05858
1.05847
1.05824
1.05804
1.05775
1.05755
1.05723
1.05699
1.0566
1.05627
1.05585
1.05544
1.05495
1.05447
1.05387
1.05313
1.05224
1.05133
1.05027
1.04917
1.04787
1.04655
1.04509
1.04357
1.04183
1.04002
1.03808
1.0361
1.03302
1.02985
1.02813
1.02657
1.0237
1.02058
1.01726
1.01395
1.0105
1.00711
1.00313
0.999481
0.995651
0.992186
0.988189
0.985012
0.981484
0.978779
0.975664
0.974339
0.972303
0.972636
0.972465
0.972003
0.974164
0.973691
0.975137
0.976525
0.97786
0.979544
0.980574
0.981922
0.983273
0.985012
0.986224
0.98774
0.988836
0.990107
0.99136
0.993027
0.994372
0.995773
0.99709
0.998454
0.999777
1.00134
1.00294
1.00452
1.00609
1.00775
1.00945
1.01124
1.01303
1.01494
1.01687
1.019
1.02109
1.02312
1.02506
1.0273
1.02962
1.03215
1.0348
1.0377
1.0406
1.04362
1.0468
1.05044
1.05425
1.05832
1.06241
1.06695
1.07191
1.07696
1.08261
1.08752
1.09283
1.09664
1.098
1.0948
1.08836
1.07555
1.05873
1.03624
1.01484
0.996739
0.98385
0.965511
0.950862
0.937515
0.927524
0.918471
0.915958
0.912733
0.91141
0.910564
0.910912
0.91161
0.912742
0.913239
0.913745
0.913946
0.914541
0.9147
0.914869
0.914668
0.914327
0.912983
0.911765
0.910767
0.909894
0.909282
0.909288
0.909062
0.908908
0.908606
0.90821
0.906559
0.906309
0.90753
0.90948
0.911823
0.914533
0.91697
0.919271
0.921404
0.923049
0.923189
0.921934
0.922682
0.923218
0.925177
0.927883
0.930736
0.933582
0.936346
0.93874
0.940954
0.942916
0.945126
0.947238
0.950063
0.952702
0.955378
0.95737
0.961093
0.962244
0.963331
0.966684
0.968981
0.971837
0.974596
0.977976
0.981013
0.984337
0.988118
0.992377
0.996694
1.00092
1.0046
1.00822
1.01165
1.015
1.01797
1.02107
1.02506
1.02871
1.0303
1.03169
1.03442
1.03736
1.03875
1.03954
1.04129
1.04346
1.04485
1.04553
1.04618
1.04699
1.04794
1.04892
1.05
1.05094
1.05184
1.05263
1.0534
1.05413
1.05481
1.05542
1.05591
1.05636
1.05667
1.05695
1.05719
1.05725
1.05736
1.05755
1.05757
1.05772
1.05776
1.05782
1.05783
1.05797
1.0579
1.05776
1.05766
1.05778
1.0579
1.05808
1.05821
1.0584
1.05854
1.05883
1.05907
1.05942
1.05976
1.06022
1.06052
1.06094
1.06118
1.06147
1.0616
1.06178
1.06177
1.0618
1.06163
1.06147
1.06114
1.0608
1.06049
1.06021
1.06033
1.06062
1.06128
1.06192
1.06198
1.06165
1.06047
1.06029
1.05928
1.05819
1.05329
1.04963
1.04186
1.03238
1.02361
1.01872
1.01553
1.01374
1.0115
1.00994
1.00814
1.0072
1.00606
1.00596
1.00561
1.00596
1.00556
1.0051
1.00416
1.0044
1.00449
1.00528
1.00439
1.00483
1.00483
1.00439
1.00528
1.0045
1.0044
1.00413
1.00507
1.00554
1.00598
1.00564
1.00601
1.00609
1.00722
1.00813
1.00992
1.01141
1.01356
1.01505
1.01705
1.0182
1.0202
1.02262
1.02631
1.02941
1.03248
1.03395
1.03584
1.03651
1.03767
1.03847
1.03943
1.04032
1.04123
1.04216
1.04296
1.04394
1.04463
1.04557
1.04622
1.04707
1.04769
1.04845
1.04904
1.04972
1.05029
1.05092
1.05145
1.05202
1.05252
1.05304
1.0535
1.05397
1.05439
1.05483
1.05518
1.05548
1.0558
1.05612
1.05647
1.05677
1.05702
1.05726
1.0575
1.05763
1.05777
1.05787
1.05796
1.05795
1.058
1.05796
1.05795
1.05787
1.05781
1.05764
1.05754
1.05733
1.05715
1.05688
1.0566
1.05626
1.05595
1.05555
1.05519
1.05469
1.05424
1.05371
1.05321
1.05264
1.05208
1.05137
1.05055
1.04954
1.0485
1.04727
1.04597
1.04446
1.04292
1.04122
1.03943
1.03742
1.03535
1.03313
1.03087
1.02751
1.0241
1.02213
1.02029
1.0172
1.01392
1.01047
1.00709
1.00359
1.00021
0.996287
0.992765
0.989073
0.985792
0.982014
0.979099
0.975818
0.973365
0.970538
0.969472
0.967687
0.968245
0.968255
0.968025
0.970302
0.970093
0.971729
0.973334
0.97489
0.976838
0.978149
0.979822
0.981445
0.98347
0.984952
0.986734
0.988063
0.989564
0.99097
0.992762
0.994197
0.995697
0.997066
0.9985
0.999856
1.00145
1.00305
1.00467
1.00625
1.00794
1.00965
1.01148
1.01327
1.01522
1.01716
1.01931
1.02141
1.02348
1.0255
1.02778
1.03016
1.03273
1.03544
1.03836
1.04137
1.04447
1.04784
1.05149
1.05544
1.05946
1.06382
1.06827
1.0734
1.07822
1.08374
1.08823
1.09244
1.09535
1.09638
1.0929
1.08882
1.0772
1.06273
1.04361
1.0225
1.00466
0.98986
0.972106
0.957031
0.942714
0.931897
0.921479
0.917304
0.912913
0.911088
0.909437
0.909777
0.910008
0.911311
0.911554
0.912126
0.912144
0.912788
0.912861
0.913081
0.912772
0.912444
0.911079
0.909961
0.908915
0.908095
0.907373
0.907386
0.907043
0.906769
0.906297
0.90569
0.903638
0.90303
0.90371
0.904965
0.906673
0.908542
0.910271
0.911809
0.913102
0.913952
0.913695
0.912037
0.912488
0.912721
0.914505
0.916976
0.919695
0.922376
0.924977
0.927242
0.929332
0.931241
0.933334
0.935452
0.938148
0.940736
0.943318
0.945362
0.948893
0.950237
0.951267
0.954649
0.956965
0.959911
0.962673
0.966154
0.969249
0.972759
0.976675
0.981168
0.985733
0.990425
0.99458
0.998776
1.00278
1.00679
1.01034
1.01412
1.01859
1.02271
1.0246
1.02634
1.02935
1.03271
1.03473
1.03575
1.03715
1.03941
1.04132
1.04248
1.04339
1.04434
1.04539
1.04651
1.04771
1.04881
1.04984
1.05077
1.05165
1.05251
1.05331
1.05403
1.05465
1.05521
1.05578
1.05623
1.05652
1.05684
1.05709
1.05733
1.05745
1.05763
1.05782
1.05807
1.05826
1.05843
1.05846
1.05843
1.05824
1.05819
1.05823
1.05837
1.05849
1.05869
1.05884
1.05915
1.05938
1.05976
1.0601
1.06056
1.06083
1.06122
1.06145
1.06175
1.06185
1.06201
1.06195
1.06196
1.06174
1.0616
1.06124
1.06099
1.06067
1.06044
1.06051
1.06075
1.06138
1.06183
1.06199
1.06182
1.06101
1.06105
1.06079
1.06076
1.05727
1.05314
1.04502
1.03451
1.02486
1.01916
1.01563
1.01374
1.01148
1.00995
1.00812
1.0072
1.00604
1.00596
1.00558
1.00595
1.00554
1.00509
1.00415
1.00441
1.0045
1.0053
1.00441
1.00485
1.00486
1.00441
1.00531
1.00452
1.00443
1.00414
1.00508
1.00553
1.00599
1.00564
1.00603
1.0061
1.00724
1.00812
1.00993
1.01138
1.01355
1.01504
1.01704
1.01814
1.0198
1.02137
1.0246
1.02729
1.0302
1.03163
1.03309
1.03403
1.03504
1.03612
1.03692
1.03817
1.03866
1.03997
1.04054
1.04165
1.04232
1.04325
1.04398
1.04477
1.04552
1.04621
1.04694
1.04757
1.04828
1.04887
1.04954
1.05009
1.0507
1.05122
1.05179
1.05225
1.05277
1.0532
1.05364
1.05395
1.05435
1.05466
1.05507
1.05536
1.05566
1.05589
1.05616
1.05628
1.05644
1.05651
1.05659
1.05658
1.0566
1.05654
1.05648
1.05638
1.05624
1.05606
1.05588
1.05566
1.05539
1.05511
1.05476
1.0544
1.05401
1.05358
1.0531
1.05251
1.05189
1.05122
1.05052
1.04978
1.04901
1.04814
1.04714
1.04596
1.04474
1.04333
1.04185
1.04014
1.03841
1.03649
1.03452
1.03232
1.03008
1.0277
1.0253
1.02183
1.0184
1.01633
1.01439
1.0113
1.00808
1.00468
1.00138
0.997993
0.994714
0.990938
0.987603
0.984134
0.981039
0.97755
0.974831
0.971857
0.969597
0.96714
0.966168
0.964849
0.965384
0.965861
0.965767
0.968434
0.968381
0.970445
0.972125
0.974029
0.976013
0.977608
0.979288
0.981109
0.983073
0.98471
0.986405
0.987865
0.98927
0.990791
0.992459
0.994004
0.995388
0.996873
0.998192
0.999672
1.00114
1.00286
1.00435
1.00606
1.00762
1.00946
1.01115
1.01309
1.01488
1.01698
1.01894
1.0212
1.02309
1.0253
1.02739
1.02995
1.03229
1.03519
1.03783
1.04103
1.04381
1.04736
1.05063
1.05474
1.05838
1.06287
1.06694
1.0721
1.07666
1.08208
1.08678
1.09102
1.094
1.09468
1.09108
1.08591
1.07534
1.06164
1.04272
1.02344
1.00623
0.992012
0.975259
0.960632
0.947365
0.936419
0.926956
0.922578
0.918768
0.916047
0.915059
0.914055
0.914792
0.914897
0.915621
0.915438
0.915815
0.915791
0.916166
0.91591
0.915914
0.915223
0.91412
0.912513
0.911765
0.910482
0.910059
0.909602
0.909535
0.908909
0.908689
0.907723
0.906025
0.904837
0.905595
0.906308
0.907938
0.909254
0.910828
0.911715
0.912685
0.912792
0.911892
0.909372
0.909054
0.908287
0.90931
0.910833
0.912871
0.914882
0.91699
0.918844
0.920622
0.922305
0.924266
0.926234
0.928814
0.931318
0.933822
0.935845
0.939254
0.940588
0.94172
0.944961
0.947358
0.950227
0.952991
0.956435
0.959492
0.962981
0.9668
0.971224
0.97569
0.980334
0.984477
0.988756
0.992899
0.997195
1.00115
1.0054
1.01053
1.01529
1.01782
1.01993
1.02337
1.02701
1.02938
1.0312
1.03305
1.03513
1.03719
1.03883
1.04004
1.04115
1.04234
1.04361
1.04495
1.04622
1.04738
1.04846
1.04946
1.05045
1.0514
1.05226
1.05301
1.05369
1.05435
1.05492
1.05533
1.05581
1.05624
1.05659
1.05681
1.05707
1.05733
1.05767
1.05797
1.05827
1.05841
1.0585
1.05842
1.0584
1.05839
1.0585
1.05852
1.05868
1.05881
1.0591
1.05933
1.05969
1.06
1.06042
1.06069
1.06105
1.06129
1.0616
1.06172
1.0619
1.06189
1.06191
1.06172
1.06156
1.06126
1.06104
1.06079
1.06063
1.06064
1.0608
1.06139
1.06164
1.06183
1.06182
1.06137
1.06178
1.06205
1.06236
1.06048
1.05678
1.04845
1.03707
1.02624
1.01967
1.01577
1.0138
1.01153
1.00994
1.00814
1.0072
1.00605
1.00595
1.0056
1.00596
1.00556
1.00511
1.00416
1.0044
1.00449
1.00528
1.00439
1.00483
1.00483
1.00439
1.00529
1.0045
1.0044
1.00413
1.00507
1.00554
1.00598
1.00565
1.00603
1.0061
1.00723
1.00813
1.00991
1.01139
1.01354
1.01501
1.01696
1.01799
1.01956
1.02091
1.02321
1.02535
1.02817
1.02966
1.03094
1.0318
1.03252
1.03326
1.03409
1.03497
1.03582
1.03673
1.03755
1.03847
1.03923
1.04014
1.04086
1.04172
1.04243
1.04323
1.04393
1.04467
1.04537
1.04607
1.04675
1.04741
1.04805
1.04867
1.04927
1.04985
1.0504
1.05092
1.0514
1.05183
1.05225
1.05267
1.05308
1.05347
1.05378
1.0541
1.05436
1.05458
1.05472
1.05488
1.05494
1.055
1.055
1.055
1.05491
1.05485
1.05468
1.05451
1.05428
1.05405
1.05373
1.05344
1.05304
1.05268
1.05224
1.05181
1.05129
1.05071
1.05004
1.04934
1.04852
1.04765
1.04664
1.04554
1.04423
1.04278
1.04124
1.03956
1.0378
1.03585
1.03389
1.03177
1.02963
1.0273
1.02498
1.02252
1.02005
1.01658
1.01323
1.01112
1.00914
1.00616
1.00308
0.99982
0.996674
0.993443
0.990377
0.986913
0.983825
0.980681
0.977876
0.974907
0.972387
0.969986
0.967815
0.966386
0.964972
0.964808
0.964291
0.966066
0.965156
0.968667
0.968055
0.970798
0.971878
0.974405
0.975797
0.978003
0.979123
0.981512
0.982903
0.9851
0.98625
0.988269
0.98916
0.991222
0.992356
0.994429
0.995316
0.997324
0.998162
1.00016
1.00115
1.00336
1.00439
1.0066
1.00771
1.01003
1.01127
1.01368
1.01506
1.0176
1.01916
1.02184
1.02338
1.02604
1.02779
1.03075
1.0328
1.03606
1.03844
1.04197
1.04461
1.04845
1.05159
1.05585
1.05942
1.06394
1.06802
1.07288
1.07743
1.08214
1.08651
1.09
1.09245
1.09296
1.08916
1.08585
1.07619
1.0639
1.04708
1.02913
1.01248
0.997133
0.981282
0.965922
0.952582
0.94042
0.930455
0.923832
0.919521
0.915621
0.914257
0.91278
0.913669
0.913407
0.914301
0.913805
0.914333
0.914052
0.914607
0.914091
0.914258
0.913291
0.912437
0.9107
0.910145
0.908719
0.908445
0.907833
0.907963
0.907196
0.907163
0.906129
0.904455
0.903218
0.904071
0.904801
0.906546
0.907794
0.9095
0.910329
0.911361
0.911407
0.910569
0.907964
0.907513
0.906502
0.907262
0.908281
0.909839
0.911291
0.91279
0.914052
0.915149
0.916282
0.917651
0.919233
0.921393
0.923683
0.925922
0.927839
0.930987
0.932346
0.933397
0.936458
0.938791
0.941606
0.944303
0.947624
0.950667
0.954042
0.957777
0.962109
0.966493
0.970988
0.974981
0.979251
0.983332
0.987623
0.9917
0.996144
1.00149
1.0067
1.00975
1.01243
1.0162
1.02033
1.02292
1.02506
1.02766
1.03028
1.03253
1.03454
1.03619
1.03752
1.03885
1.04028
1.04177
1.0432
1.04451
1.04572
1.04684
1.04795
1.04902
1.05004
1.05097
1.05184
1.0526
1.05328
1.05388
1.05452
1.05509
1.05553
1.05584
1.05619
1.05649
1.05686
1.05721
1.05761
1.05788
1.05813
1.05823
1.05833
1.05837
1.05851
1.05852
1.0586
1.05867
1.05891
1.0591
1.05944
1.05969
1.06007
1.0603
1.06063
1.06082
1.0611
1.06122
1.06143
1.06145
1.06153
1.06138
1.0613
1.06103
1.06088
1.06067
1.06057
1.0606
1.06071
1.06121
1.06146
1.06176
1.06195
1.06148
1.06227
1.06316
1.06355
1.06255
1.05977
1.0523
1.0398
1.02794
1.02033
1.01591
1.0138
1.0115
1.00996
1.00812
1.0072
1.00603
1.00594
1.00557
1.00595
1.00554
1.0051
1.00415
1.00441
1.0045
1.0053
1.0044
1.00485
1.00486
1.00441
1.00531
1.00452
1.00444
1.00414
1.00508
1.00553
1.006
1.00565
1.00605
1.00611
1.00724
1.00813
1.00993
1.01137
1.01353
1.015
1.01697
1.01797
1.01929
1.02013
1.0222
1.02366
1.02597
1.02751
1.02851
1.02941
1.03028
1.03094
1.03164
1.03245
1.03304
1.03395
1.03456
1.03542
1.03609
1.03687
1.03758
1.03829
1.03903
1.03969
1.04045
1.04107
1.04183
1.04245
1.04319
1.04381
1.04453
1.04513
1.04582
1.0464
1.04705
1.04761
1.04819
1.04867
1.0492
1.04967
1.05019
1.05063
1.05105
1.05142
1.05178
1.05203
1.05227
1.05245
1.05259
1.05266
1.05273
1.05273
1.05271
1.05263
1.05253
1.05233
1.05214
1.05186
1.05156
1.05118
1.05076
1.05026
1.04975
1.04914
1.04849
1.04768
1.04682
1.04588
1.04484
1.04371
1.04248
1.04114
1.0396
1.03795
1.03622
1.0344
1.0325
1.03051
1.02849
1.02636
1.02426
1.02201
1.01979
1.01748
1.01513
1.0119
1.00877
1.00678
1.0049
1.00209
0.999217
0.996192
0.993309
0.990419
0.987665
0.984683
0.981871
0.97909
0.976582
0.97397
0.971652
0.96953
0.967449
0.96615
0.964818
0.964773
0.964251
0.966025
0.965223
0.968549
0.968194
0.970726
0.971999
0.974307
0.975876
0.977879
0.979185
0.981371
0.982926
0.984933
0.986249
0.988089
0.98915
0.991038
0.992324
0.994226
0.995273
0.997121
0.998119
0.999966
1.00111
1.00315
1.00434
1.00639
1.00765
1.00981
1.01122
1.01346
1.015
1.01736
1.01908
1.02157
1.02329
1.02576
1.02769
1.03044
1.03266
1.03567
1.03823
1.04147
1.04427
1.04778
1.05107
1.05496
1.05867
1.06282
1.06698
1.07154
1.07607
1.08072
1.08508
1.08866
1.09092
1.09128
1.08742
1.08327
1.07397
1.06218
1.04612
1.03011
1.01291
0.999435
0.983071
0.969491
0.955781
0.94502
0.934611
0.929439
0.924277
0.921226
0.919132
0.917903
0.917503
0.917688
0.917642
0.91762
0.917384
0.917468
0.917371
0.917312
0.916931
0.916463
0.915007
0.913629
0.912514
0.911485
0.910641
0.910428
0.910007
0.909697
0.909134
0.908533
0.906507
0.905525
0.905764
0.906858
0.907998
0.909659
0.910813
0.912019
0.912562
0.913047
0.911721
0.909563
0.908589
0.907984
0.908142
0.909496
0.910447
0.912107
0.912986
0.914315
0.914714
0.91571
0.91622
0.917457
0.918659
0.920505
0.921849
0.923391
0.925794
0.926562
0.927518
0.930084
0.932154
0.934766
0.937247
0.94042
0.943274
0.94656
0.950085
0.954288
0.958478
0.962852
0.966615
0.970583
0.974346
0.978355
0.982179
0.986589
0.991878
0.997223
1.00065
1.00393
1.00818
1.01266
1.01561
1.01775
1.02053
1.02376
1.02639
1.02886
1.03118
1.03299
1.03458
1.03623
1.03793
1.03957
1.04111
1.0425
1.04381
1.04504
1.04624
1.04741
1.04849
1.04952
1.05043
1.05122
1.052
1.0528
1.05352
1.05413
1.05457
1.05501
1.05537
1.05578
1.05612
1.05651
1.05682
1.05716
1.05741
1.0577
1.05791
1.05816
1.05824
1.05828
1.05834
1.05852
1.05868
1.059
1.05923
1.05957
1.05979
1.06007
1.06022
1.06048
1.06056
1.06075
1.06077
1.06088
1.06078
1.06077
1.06058
1.06051
1.06037
1.06036
1.06041
1.0606
1.06096
1.06127
1.06171
1.06203
1.06191
1.06243
1.06389
1.06447
1.0638
1.06164
1.05589
1.04314
1.02979
1.02109
1.01615
1.01389
1.01155
1.00995
1.00814
1.00719
1.00604
1.00593
1.00559
1.00596
1.00557
1.00511
1.00417
1.0044
1.00449
1.00529
1.00439
1.00483
1.00483
1.00438
1.00529
1.0045
1.00441
1.00412
1.00506
1.00554
1.00599
1.00566
1.00604
1.00611
1.00724
1.00813
1.00991
1.01138
1.01351
1.01496
1.01689
1.01788
1.01928
1.01996
1.0213
1.0225
1.02423
1.02556
1.02668
1.02706
1.02808
1.02843
1.02934
1.0298
1.03062
1.03116
1.03192
1.03253
1.03322
1.03385
1.0345
1.03514
1.03576
1.03639
1.03701
1.03763
1.03824
1.03885
1.03946
1.04006
1.04067
1.04126
1.04185
1.04243
1.04301
1.04356
1.04411
1.04461
1.04514
1.04563
1.04616
1.04664
1.04709
1.0475
1.04789
1.0482
1.04847
1.04869
1.04885
1.04895
1.04902
1.04904
1.049
1.04893
1.04878
1.04858
1.04834
1.04803
1.04765
1.04721
1.04667
1.04608
1.04543
1.0447
1.04388
1.04292
1.04188
1.04077
1.03957
1.03833
1.03702
1.03565
1.03412
1.03253
1.0309
1.02919
1.02744
1.02562
1.02378
1.02189
1.01997
1.01792
1.01582
1.01364
1.0114
1.00841
1.00554
1.00366
1.00191
0.999444
0.996878
0.994218
0.991659
0.989109
0.986657
0.983955
0.981405
0.978829
0.976475
0.973939
0.971777
0.969651
0.967689
0.966323
0.965116
0.965002
0.964705
0.966266
0.965556
0.968763
0.968462
0.970954
0.972212
0.974498
0.976063
0.978062
0.979394
0.981555
0.983117
0.985106
0.986446
0.988277
0.989384
0.991256
0.992562
0.994444
0.995535
0.997369
0.998416
1.00026
1.00144
1.00346
1.00469
1.00673
1.00805
1.01019
1.01164
1.01388
1.01546
1.01782
1.01957
1.02205
1.02384
1.02634
1.02833
1.0311
1.03337
1.03641
1.039
1.04229
1.04514
1.04871
1.05198
1.05589
1.05949
1.06365
1.06759
1.07198
1.07614
1.08029
1.0843
1.08735
1.08936
1.08954
1.08562
1.08276
1.07447
1.06361
1.04951
1.03352
1.01776
1.00358
0.988066
0.974223
0.960311
0.949029
0.93783
0.931217
0.925
0.921301
0.918105
0.916974
0.916166
0.916524
0.916148
0.916269
0.91578
0.916025
0.915691
0.915738
0.915122
0.91475
0.91318
0.912048
0.910764
0.909957
0.908895
0.908881
0.908311
0.908162
0.907495
0.907093
0.90483
0.904085
0.904157
0.905479
0.906497
0.908384
0.909447
0.910868
0.911288
0.911929
0.910577
0.908593
0.907513
0.90703
0.907064
0.908543
0.909445
0.911239
0.912055
0.913507
0.9138
0.914912
0.915236
0.916575
0.917452
0.919335
0.920241
0.921695
0.923593
0.923829
0.924753
0.926374
0.928172
0.930236
0.932442
0.93518
0.937762
0.940776
0.944141