/*--------------------------------*- C++ -*----------------------------------*\
| =========                 |                                                 |
| \\      /  F ield         | OpenFOAM: The Open Source CFD Toolbox           |
|  \\    /   O peration     | Version:  v2006                                 |
|   \\  /    A nd           | Website:  www.openfoam.com                      |
|    \\/     M anipulation  |                                                 |
\*---------------------------------------------------------------------------*/
FoamFile
{
    version     2.0;
    format      ascii;
    class       volScalarField;
    location    "185";
    object      TPrime2Mean;
}
// * * * * * * * * * * * * * * * * * * * * * * * * * * * * * * * * * * * * * //

dimensions      [0 0 0 2 0 0 0];


internalField   nonuniform List<scalar> 
93840
(
2.70041e-05
2.90461e-05
4.0139e-05
3.42121e-05
3.59124e-05
2.63545e-05
4.18656e-05
4.24865e-05
6.28604e-05
3.6296e-05
3.9572e-05
2.44635e-05
2.62275e-05
2.08668e-05
2.54759e-05
2.18315e-05
2.75329e-05
2.50348e-05
3.6334e-05
6.72872e-05
0.000149534
0.000209161
0.000224346
0.000237054
0.000272662
0.000285938
0.000305961
0.000312841
0.000375056
0.00044787
0.000456175
0.000362997
0.000275028
0.000176148
0.000128972
0.000108989
8.9447e-05
7.98192e-05
6.88441e-05
6.28028e-05
5.59444e-05
5.19456e-05
4.71456e-05
4.43092e-05
4.09582e-05
3.87479e-05
3.64907e-05
3.45635e-05
3.32201e-05
3.16685e-05
3.10396e-05
2.92906e-05
2.87627e-05
2.82639e-05
2.72735e-05
2.67091e-05
2.55467e-05
2.59159e-05
2.5073e-05
2.58075e-05
2.47033e-05
2.54948e-05
2.47924e-05
2.54916e-05
2.47349e-05
2.53114e-05
2.44964e-05
2.50784e-05
2.40324e-05
2.44547e-05
2.34013e-05
2.35735e-05
2.2379e-05
2.18834e-05
2.07081e-05
2.01615e-05
1.92789e-05
1.86647e-05
1.77404e-05
1.70694e-05
1.66654e-05
1.64518e-05
1.58634e-05
1.51882e-05
1.46692e-05
1.37246e-05
1.28593e-05
1.20332e-05
1.13955e-05
1.07861e-05
1.02543e-05
9.71397e-06
9.33394e-06
9.11546e-06
9.07726e-06
9.12003e-06
9.29568e-06
9.5651e-06
9.98932e-06
1.0623e-05
1.13342e-05
1.19459e-05
1.25344e-05
1.32789e-05
1.38932e-05
1.38197e-05
1.3417e-05
1.34046e-05
1.34064e-05
1.34058e-05
1.33446e-05
1.34068e-05
1.34544e-05
1.38549e-05
1.42992e-05
1.4986e-05
1.58332e-05
1.71659e-05
1.87502e-05
2.08569e-05
2.32789e-05
2.58378e-05
2.76617e-05
2.95698e-05
3.02962e-05
2.98836e-05
3.26999e-05
3.01396e-05
3.10701e-05
3.10926e-05
2.95761e-05
2.95466e-05
2.83039e-05
2.85343e-05
2.815e-05
2.80138e-05
2.73153e-05
2.73879e-05
2.71173e-05
2.74179e-05
2.75904e-05
2.78718e-05
2.76702e-05
2.79242e-05
2.81247e-05
2.85426e-05
2.88668e-05
2.94188e-05
2.95993e-05
2.98963e-05
3.0105e-05
3.0587e-05
3.08013e-05
3.12269e-05
3.13531e-05
3.18007e-05
3.19e-05
3.23018e-05
3.2179e-05
3.24229e-05
3.26617e-05
3.35049e-05
3.3722e-05
3.43136e-05
3.44394e-05
3.49373e-05
3.47453e-05
3.52615e-05
3.55669e-05
3.65262e-05
3.62894e-05
3.65651e-05
3.584e-05
3.64879e-05
3.53354e-05
3.4416e-05
3.19474e-05
2.99969e-05
2.44824e-05
2.30075e-05
2.05017e-05
2.45657e-05
2.79739e-05
5.21288e-05
7.85e-05
0.000136658
0.000183812
0.000217842
0.000187371
0.000144409
0.000181844
0.000239359
0.000279647
0.000303164
0.000385377
0.000388185
0.000377677
0.000366846
0.000356151
0.000342565
0.000317088
0.000285331
0.000252732
0.000224802
0.000201395
0.000180448
0.000160407
0.000142363
0.000127364
0.000116835
0.000116888
0.000122641
0.000123059
0.000125503
0.00012584
0.000122786
0.000120122
0.000115389
0.000111786
0.000110596
0.000125842
0.000137133
0.00014209
0.000144684
0.000144835
0.000139068
0.000132558
0.00012266
0.00011006
9.85472e-05
9.11408e-05
9.42599e-05
0.000100655
0.000113933
0.000120452
0.000125363
0.000128444
0.000130117
0.000129823
0.000130484
0.000130095
0.000129925
0.000127368
0.000125424
0.000120963
0.000118149
0.000114448
0.000117132
0.000111071
0.000110921
0.000114742
0.00011151
0.000111539
0.000109673
0.000112834
0.000110154
0.00011327
0.000111174
0.000105197
9.11295e-05
6.96018e-05
7.12531e-05
7.51952e-05
7.55502e-05
7.52343e-05
7.35712e-05
7.28825e-05
6.88787e-05
5.88359e-05
5.15198e-05
5.03121e-05
4.94168e-05
4.36941e-05
3.89355e-05
3.98524e-05
4.01196e-05
4.02071e-05
3.9792e-05
5.61926e-05
7.92253e-05
0.00010271
0.0001194
0.000137066
0.000143427
0.000155484
0.00016133
0.000168318
0.000176817
0.000186172
0.000195926
0.000207623
0.000217549
0.000229236
0.000249649
0.000288011
0.000323281
0.000356765
0.000380925
0.000424954
0.000462097
0.000482587
0.000511759
0.000506736
0.000506007
0.000505248
0.000521787
0.000524657
0.000483152
0.000465029
0.000459427
0.000457546
0.000462226
0.000463792
0.000470803
0.000480285
0.00049144
0.000498247
0.000501697
0.000489604
0.00048306
0.000471245
0.000455378
0.000426352
0.000400737
0.00036831
0.000354404
0.000343431
0.000348612
0.000374677
0.000423026
0.000571301
0.000675414
0.000938003
0.000931085
0.00117593
0.000785171
0.000615381
0.000597857
0.000598474
0.000533534
0.000406907
0.00032977
0.000290464
0.000274435
0.000250255
0.000226066
0.00022195
0.000163865
7.38879e-05
3.77197e-05
2.50262e-05
2.68651e-05
2.18136e-05
2.51982e-05
2.10779e-05
2.61414e-05
2.44504e-05
3.956e-05
3.62845e-05
6.28704e-05
4.23297e-05
4.18442e-05
2.66338e-05
3.59409e-05
3.42006e-05
4.01093e-05
2.90986e-05
2.70101e-05
2.69953e-05
2.90954e-05
4.01277e-05
3.41809e-05
3.59625e-05
2.66007e-05
4.17845e-05
4.22895e-05
6.29054e-05
3.63859e-05
3.97037e-05
2.45088e-05
2.61404e-05
2.10132e-05
2.50317e-05
2.15667e-05
2.65661e-05
2.45196e-05
3.42947e-05
5.81617e-05
0.000134028
0.000208165
0.000236047
0.000231401
0.000268824
0.0003003
0.000316395
0.000297551
0.000279314
0.000284408
0.000251107
0.000218447
0.000177237
0.000137653
0.000116021
9.41785e-05
8.28834e-05
7.03054e-05
6.3206e-05
5.56779e-05
5.06863e-05
4.60629e-05
4.22217e-05
3.91999e-05
3.61972e-05
3.41203e-05
3.17197e-05
3.01847e-05
2.84457e-05
2.70263e-05
2.5753e-05
2.46784e-05
2.34347e-05
2.28741e-05
2.17912e-05
2.1442e-05
2.02815e-05
2.05084e-05
1.94879e-05
1.98468e-05
1.89206e-05
1.93007e-05
1.86651e-05
1.90832e-05
1.87411e-05
1.92316e-05
1.86938e-05
1.9183e-05
1.84377e-05
1.86885e-05
1.82066e-05
1.83197e-05
1.77027e-05
1.74871e-05
1.6876e-05
1.63593e-05
1.57762e-05
1.5243e-05
1.47326e-05
1.43495e-05
1.40846e-05
1.38142e-05
1.36404e-05
1.33411e-05
1.31834e-05
1.28501e-05
1.27858e-05
1.27149e-05
1.28232e-05
1.30033e-05
1.34623e-05
1.4214e-05
1.5045e-05
1.60309e-05
1.70006e-05
1.82456e-05
1.94239e-05
2.04085e-05
2.12791e-05
2.19943e-05
2.24007e-05
2.24788e-05
2.23908e-05
2.28312e-05
2.30952e-05
2.23615e-05
2.12837e-05
2.08537e-05
2.06008e-05
2.04491e-05
2.0297e-05
2.04457e-05
2.0656e-05
2.15287e-05
2.25159e-05
2.39743e-05
2.57413e-05
2.83255e-05
3.12555e-05
3.50023e-05
3.91112e-05
4.32071e-05
4.60062e-05
4.87572e-05
4.9526e-05
4.90062e-05
5.27202e-05
4.86386e-05
5.01096e-05
4.94587e-05
4.72545e-05
4.69492e-05
4.50164e-05
4.52534e-05
4.44458e-05
4.41646e-05
4.30222e-05
4.31115e-05
4.26067e-05
4.30364e-05
4.31409e-05
4.35023e-05
4.31384e-05
4.35286e-05
4.37381e-05
4.43454e-05
4.47279e-05
4.54935e-05
4.56717e-05
4.61226e-05
4.63683e-05
4.70545e-05
4.7309e-05
4.79451e-05
4.81179e-05
4.88312e-05
4.90084e-05
4.97278e-05
4.97067e-05
5.03435e-05
5.07942e-05
5.20762e-05
5.23522e-05
5.31873e-05
5.30951e-05
5.35306e-05
5.27785e-05
5.29476e-05
5.22211e-05
5.21512e-05
5.00032e-05
4.8562e-05
4.5673e-05
4.44175e-05
4.06375e-05
3.75417e-05
3.23566e-05
2.69679e-05
2.46076e-05
2.26842e-05
2.09822e-05
2.26258e-05
2.91524e-05
4.46164e-05
5.21369e-05
9.37643e-05
0.000140832
0.000188572
0.000203496
0.000184277
0.000224257
0.000283694
0.000340741
0.000369452
0.000473478
0.000499858
0.000501232
0.000501569
0.000499777
0.000492159
0.000468534
0.000433432
0.00039377
0.000357194
0.000324848
0.000294096
0.0002637
0.000234398
0.000209671
0.000189197
0.000183161
0.000187949
0.000188838
0.000193111
0.000195688
0.000192785
0.000190156
0.000184122
0.00017983
0.000177635
0.000197542
0.000214226
0.000223234
0.000228827
0.000230768
0.000223986
0.000215043
0.000201137
0.000183009
0.00016536
0.000152001
0.000153621
0.000161508
0.000179636
0.000190504
0.000199076
0.000204585
0.00020777
0.000207641
0.000208581
0.00020829
0.000207891
0.000203911
0.000199853
0.000191953
0.000186284
0.00017905
0.000182059
0.00017436
0.000172726
0.000179323
0.000175901
0.000176643
0.000174526
0.000179806
0.000177453
0.000182699
0.000180672
0.000176067
0.000152565
0.000119383
0.000116961
0.000124781
0.000129244
0.000132347
0.000134958
0.000137069
0.000136491
0.000125365
0.000113523
0.000112208
0.000109518
9.53735e-05
8.01509e-05
7.7086e-05
7.58089e-05
7.43054e-05
6.73291e-05
7.16018e-05
8.6678e-05
0.000112088
0.000124924
0.000134222
0.000146546
0.000156448
0.000165044
0.000174875
0.000184082
0.000195613
0.000205331
0.00021669
0.000224963
0.000237935
0.000254171
0.000290301
0.000325647
0.000349866
0.000378677
0.0004258
0.000461745
0.000489695
0.000511704
0.000528626
0.000542282
0.000541483
0.000571036
0.000555653
0.000548408
0.000551443
0.000555581
0.000562772
0.000572036
0.000581576
0.000593995
0.000603669
0.000612898
0.000611396
0.00060869
0.000596533
0.000583318
0.000554663
0.000525767
0.000484171
0.000456765
0.000422406
0.000408965
0.000391565
0.000411509
0.000433907
0.000512852
0.000606361
0.000766587
0.000921699
0.00106678
0.00110078
0.000962531
0.000884997
0.000822123
0.0007421
0.000680435
0.000533559
0.000404683
0.000311019
0.000282812
0.000259763
0.000228531
0.000215075
0.000182262
8.71876e-05
4.12299e-05
2.57142e-05
2.78652e-05
2.20219e-05
2.56349e-05
2.09405e-05
2.62318e-05
2.43864e-05
3.94169e-05
3.61966e-05
6.27918e-05
4.25416e-05
4.19174e-05
2.63596e-05
3.58795e-05
3.42419e-05
4.01379e-05
2.90412e-05
2.69943e-05
2.70015e-05
2.90405e-05
4.01552e-05
3.41863e-05
3.59606e-05
2.63445e-05
4.17994e-05
4.24224e-05
6.29269e-05
3.64198e-05
3.97693e-05
2.45487e-05
2.62303e-05
2.07863e-05
2.52578e-05
2.15483e-05
2.70957e-05
2.44318e-05
3.30039e-05
5.01826e-05
0.000111828
0.00018462
0.000240992
0.000235324
0.000267465
0.000307259
0.000338381
0.000324256
0.000306808
0.00026942
0.000250923
0.000190657
0.00016934
0.000128596
0.000107812
8.88533e-05
7.59831e-05
6.66807e-05
5.79826e-05
5.30015e-05
4.69442e-05
4.40238e-05
3.96653e-05
3.76229e-05
3.46089e-05
3.29028e-05
3.09498e-05
2.91765e-05
2.82454e-05
2.61852e-05
2.5696e-05
2.37281e-05
2.3319e-05
2.16033e-05
2.12698e-05
2.03066e-05
1.96578e-05
1.93739e-05
1.81137e-05
1.81914e-05
1.72149e-05
1.73117e-05
1.65901e-05
1.68692e-05
1.66266e-05
1.69117e-05
1.6473e-05
1.69394e-05
1.64497e-05
1.68223e-05
1.66823e-05
1.67357e-05
1.64913e-05
1.6413e-05
1.61544e-05
1.58568e-05
1.55709e-05
1.52173e-05
1.50892e-05
1.49409e-05
1.50238e-05
1.4976e-05
1.51682e-05
1.52898e-05
1.57033e-05
1.60063e-05
1.6577e-05
1.71693e-05
1.79708e-05
1.89581e-05
2.04824e-05
2.21957e-05
2.38722e-05
2.55788e-05
2.71512e-05
2.88245e-05
3.00258e-05
3.09531e-05
3.13844e-05
3.15249e-05
3.1332e-05
3.08427e-05
3.02043e-05
3.01823e-05
2.97325e-05
2.85382e-05
2.71017e-05
2.6523e-05
2.62144e-05
2.62029e-05
2.6319e-05
2.69199e-05
2.76821e-05
2.94029e-05
3.12956e-05
3.38987e-05
3.68452e-05
4.09128e-05
4.52573e-05
5.06003e-05
5.61692e-05
6.16136e-05
6.50652e-05
6.8392e-05
6.90321e-05
6.84399e-05
7.25033e-05
6.73482e-05
6.89882e-05
6.77912e-05
6.51307e-05
6.44415e-05
6.20281e-05
6.21094e-05
6.09727e-05
6.05167e-05
5.90008e-05
5.90424e-05
5.82921e-05
5.87641e-05
5.87235e-05
5.91236e-05
5.85507e-05
5.89911e-05
5.90841e-05
5.97806e-05
6.00851e-05
6.09822e-05
6.10883e-05
6.16676e-05
6.18874e-05
6.27594e-05
6.29868e-05
6.37782e-05
6.38358e-05
6.45881e-05
6.44558e-05
6.49867e-05
6.43785e-05
6.45556e-05
6.41462e-05
6.47019e-05
6.3857e-05
6.38065e-05
6.25072e-05
6.20853e-05
6.02102e-05
5.96539e-05
5.79145e-05
5.74045e-05
5.47452e-05
5.34705e-05
5.0169e-05
4.89625e-05
4.48473e-05
4.24296e-05
3.70334e-05
3.39972e-05
2.6577e-05
2.53926e-05
2.26162e-05
2.22544e-05
2.37368e-05
3.74011e-05
5.74791e-05
0.000100672
0.000128082
0.000164798
0.000179731
0.000166841
0.000208883
0.000264049
0.000324595
0.000360378
0.000465875
0.00049367
0.000505491
0.000516194
0.000521209
0.000524223
0.000507851
0.000483369
0.000447672
0.000417723
0.000388957
0.000361649
0.000333374
0.000303664
0.000276782
0.00025281
0.000243343
0.000246702
0.000247775
0.000252979
0.00025756
0.000254942
0.000253073
0.000246224
0.000242034
0.000238775
0.000261008
0.000281716
0.000293774
0.000301472
0.000304626
0.000297689
0.000287332
0.000271225
0.000249851
0.000228515
0.000211079
0.000211207
0.000218972
0.000238677
0.000251225
0.000261412
0.000267916
0.000271618
0.000271027
0.000271405
0.000270657
0.000269583
0.000264543
0.000258281
0.000247672
0.000238666
0.000228079
0.000229915
0.000221084
0.000217811
0.000225667
0.000222577
0.000223996
0.000222482
0.000229208
0.000229111
0.000235231
0.000235763
0.000231388
0.000200967
0.000159734
0.000154026
0.000163519
0.000172234
0.000179296
0.00018606
0.000191792
0.000193871
0.000183639
0.000170449
0.000169354
0.000165905
0.000147187
0.000125064
0.000117768
0.000115505
0.000111314
9.85809e-05
9.07839e-05
9.6154e-05
0.000114205
0.000129872
0.000136809
0.00014821
0.000158553
0.000166951
0.000177766
0.000188196
0.000200154
0.000210042
0.000220597
0.000228217
0.000240759
0.000256594
0.000287525
0.000323411
0.000342583
0.000370518
0.000413652
0.000452951
0.000478381
0.000505329
0.000519176
0.000547541
0.00055257
0.000571356
0.000573067
0.000581207
0.000587256
0.000598355
0.000608787
0.000623623
0.000631414
0.000645935
0.00065621
0.000667698
0.000667272
0.000665059
0.000650879
0.000635299
0.000605213
0.000579922
0.000543603
0.000523418
0.000492013
0.000487772
0.000475142
0.000501288
0.000530396
0.000611087
0.000696253
0.000857331
0.000965839
0.00112961
0.00117455
0.00113216
0.00112059
0.00102056
0.000938411
0.000839161
0.000679866
0.000531473
0.000386301
0.000324675
0.000294484
0.000245518
0.000210314
0.000191425
9.76494e-05
4.4729e-05
2.59892e-05
2.73287e-05
2.21416e-05
2.5436e-05
2.11871e-05
2.61257e-05
2.43649e-05
3.93664e-05
3.61558e-05
6.27959e-05
4.2393e-05
4.19154e-05
2.66654e-05
3.59071e-05
3.42348e-05
4.0099e-05
2.90924e-05
2.70132e-05
2.70114e-05
2.90884e-05
4.01662e-05
3.41724e-05
3.60008e-05
2.65691e-05
4.17301e-05
4.22409e-05
6.29724e-05
3.64913e-05
3.98727e-05
2.45736e-05
2.61696e-05
2.0946e-05
2.4892e-05
2.13347e-05
2.62916e-05
2.41086e-05
3.20382e-05
4.55038e-05
0.000100862
0.000167234
0.000226521
0.000229084
0.000254212
0.000295887
0.000331786
0.000315773
0.000278746
0.000256229
0.000210875
0.000181467
0.000151812
0.000125424
0.000107356
8.99809e-05
7.94301e-05
6.76077e-05
6.15205e-05
5.32355e-05
4.97894e-05
4.39025e-05
4.18877e-05
3.75865e-05
3.64137e-05
3.31342e-05
3.24138e-05
2.99331e-05
2.92986e-05
2.74178e-05
2.67964e-05
2.53632e-05
2.45828e-05
2.34758e-05
2.2509e-05
2.20568e-05
2.0892e-05
2.06293e-05
1.94608e-05
1.92697e-05
1.81412e-05
1.77721e-05
1.70616e-05
1.69488e-05
1.65216e-05
1.64191e-05
1.62463e-05
1.64227e-05
1.61318e-05
1.63936e-05
1.62366e-05
1.6064e-05
1.60877e-05
1.60028e-05
1.60432e-05
1.59503e-05
1.58848e-05
1.58404e-05
1.60496e-05
1.60114e-05
1.62296e-05
1.62705e-05
1.65701e-05
1.67722e-05
1.73801e-05
1.80611e-05
1.93363e-05
2.08104e-05
2.26787e-05
2.45485e-05
2.72069e-05
2.9622e-05
3.19857e-05
3.38397e-05
3.54112e-05
3.65596e-05
3.71207e-05
3.71255e-05
3.67176e-05
3.60613e-05
3.51254e-05
3.38322e-05
3.27193e-05
3.19617e-05
3.11332e-05
3.01265e-05
2.89299e-05
2.87501e-05
2.88055e-05
2.93659e-05
3.02162e-05
3.17155e-05
3.34917e-05
3.65078e-05
3.9724e-05
4.3862e-05
4.83433e-05
5.41917e-05
6.0103e-05
6.71767e-05
7.41762e-05
8.09199e-05
8.50271e-05
8.91142e-05
8.94427e-05
8.90338e-05
9.30842e-05
8.73389e-05
8.87774e-05
8.70047e-05
8.37761e-05
8.25458e-05
7.96299e-05
7.93356e-05
7.77458e-05
7.69062e-05
7.48646e-05
7.46017e-05
7.33655e-05
7.35821e-05
7.30938e-05
7.32297e-05
7.21873e-05
7.23901e-05
7.20279e-05
7.24434e-05
7.21965e-05
7.26698e-05
7.20315e-05
7.19968e-05
7.1257e-05
7.12777e-05
7.0343e-05
7.01216e-05
6.89188e-05
6.86261e-05
6.72777e-05
6.68912e-05
6.52995e-05
6.48197e-05
6.3596e-05
6.3648e-05
6.2273e-05
6.20419e-05
6.04348e-05
6.00435e-05
5.80755e-05
5.76464e-05
5.57536e-05
5.52913e-05
5.25777e-05
5.14183e-05
4.82247e-05
4.7071e-05
4.32165e-05
4.0841e-05
3.59905e-05
3.29602e-05
2.76848e-05
2.45567e-05
2.31916e-05
2.21681e-05
2.39505e-05
3.68265e-05
5.04062e-05
7.75185e-05
0.000106876
0.000144988
0.000169578
0.000168508
0.000207594
0.000258537
0.0003188
0.000349236
0.00045339
0.000490225
0.000506345
0.000517972
0.000527283
0.000530067
0.000520405
0.000494583
0.000461429
0.000431567
0.000405541
0.000380448
0.00035396
0.000326823
0.000301559
0.000280648
0.000272926
0.000278359
0.000283149
0.000291482
0.000300317
0.000300036
0.000300031
0.000294056
0.000290708
0.000288713
0.000314348
0.000335365
0.00034793
0.000355672
0.000358179
0.000350518
0.000339066
0.000322222
0.000299242
0.0002761
0.000257404
0.000257866
0.000265033
0.000283331
0.000294726
0.00030326
0.000307949
0.000310157
0.000308061
0.00030729
0.000305357
0.0003032
0.000296786
0.000288383
0.000275937
0.000262968
0.000250069
0.000249767
0.000239867
0.000235027
0.000242709
0.000239962
0.000241282
0.000240457
0.000247787
0.000250282
0.000256803
0.000262462
0.000253304
0.000227041
0.0001813
0.000172924
0.000183367
0.000195325
0.000205905
0.000216963
0.000227414
0.000234599
0.000229628
0.000220299
0.000220876
0.000218902
0.000194368
0.000163833
0.000151129
0.00015009
0.000146817
0.000132097
0.000112987
0.000106264
0.000114806
0.000129618
0.000138005
0.000149284
0.000160078
0.000168618
0.000179451
0.000190826
0.000202122
0.000211731
0.000221067
0.000229388
0.000242393
0.000259828
0.000282977
0.000307235
0.000318126
0.000353213
0.000385598
0.0004158
0.000442288
0.000466449
0.000486716
0.000516325
0.000529871
0.00054631
0.000561307
0.00057747
0.000589191
0.000603248
0.000613919
0.000626176
0.000631217
0.000641757
0.000647118
0.000652232
0.000647886
0.00064125
0.000624985
0.000606985
0.000579137
0.000555615
0.000525665
0.000508557
0.000485361
0.00048329
0.000479439
0.000508454
0.000542211
0.0006237
0.00071811
0.000865308
0.000995996
0.0011378
0.00119927
0.0011871
0.0011801
0.00107505
0.00100162
0.000913857
0.000761213
0.000606559
0.000440653
0.000359455
0.000329846
0.000283737
0.000206952
0.000202378
0.000108902
4.83616e-05
2.67948e-05
2.83064e-05
2.22741e-05
2.58421e-05
2.10225e-05
2.62353e-05
2.43258e-05
3.9244e-05
3.60947e-05
6.27293e-05
4.2595e-05
4.19681e-05
2.63612e-05
3.58306e-05
3.42615e-05
4.01441e-05
2.90426e-05
2.70008e-05
2.70015e-05
2.90373e-05
4.02109e-05
3.41656e-05
3.60033e-05
2.63345e-05
4.17458e-05
4.23697e-05
6.29807e-05
3.65277e-05
3.99354e-05
2.46264e-05
2.6238e-05
2.07189e-05
2.50846e-05
2.13172e-05
2.67558e-05
2.40116e-05
3.14198e-05
4.08174e-05
8.41329e-05
0.000145318
0.00021711
0.000231193
0.000255225
0.000291673
0.000338804
0.000341123
0.000310427
0.000261089
0.000244635
0.000186435
0.00017365
0.00013358
0.000121813
9.70984e-05
8.88487e-05
7.34685e-05
6.76207e-05
5.78846e-05
5.35997e-05
4.73928e-05
4.41216e-05
4.01024e-05
3.75945e-05
3.49288e-05
3.30017e-05
3.12509e-05
2.97643e-05
2.85866e-05
2.73225e-05
2.66048e-05
2.54955e-05
2.48814e-05
2.39649e-05
2.33978e-05
2.26051e-05
2.20018e-05
2.13247e-05
2.05918e-05
2.0098e-05
1.97321e-05
1.93026e-05
1.9124e-05
1.90653e-05
1.91784e-05
1.9126e-05
1.89714e-05
1.88792e-05
1.87998e-05
1.8783e-05
1.85502e-05
1.86999e-05
1.86177e-05
1.89786e-05
1.90304e-05
1.927e-05
1.94927e-05
1.99987e-05
2.06133e-05
2.15233e-05
2.25149e-05
2.39733e-05
2.56183e-05
2.77561e-05
2.99402e-05
3.24572e-05
3.47882e-05
3.70053e-05
3.95259e-05
4.13195e-05
4.30876e-05
4.37707e-05
4.46847e-05
4.45882e-05
4.40696e-05
4.27986e-05
4.13349e-05
3.93405e-05
3.74916e-05
3.52656e-05
3.31975e-05
3.15713e-05
3.04234e-05
2.98478e-05
2.94127e-05
2.8991e-05
2.96168e-05
3.08907e-05
3.32327e-05
3.62415e-05
4.0414e-05
4.50102e-05
5.14686e-05
5.79275e-05
6.55789e-05
7.29735e-05
8.21486e-05
9.00832e-05
9.95428e-05
0.000107508
0.000115437
0.000118905
0.000122823
0.000121188
0.000119903
0.000121813
0.000114597
0.000113498
0.000110941
0.000105064
0.000102932
9.77064e-05
9.6513e-05
9.29912e-05
9.13176e-05
8.76001e-05
8.66118e-05
8.39155e-05
8.34485e-05
8.16061e-05
8.1053e-05
7.87082e-05
7.81542e-05
7.64705e-05
7.60904e-05
7.4579e-05
7.43272e-05
7.26037e-05
7.20416e-05
7.04183e-05
7.01117e-05
6.85286e-05
6.8199e-05
6.65617e-05
6.63266e-05
6.46737e-05
6.44577e-05
6.26458e-05
6.23974e-05
6.09466e-05
6.11918e-05
5.96123e-05
5.96001e-05
5.78206e-05
5.76575e-05
5.55735e-05
5.53773e-05
5.33875e-05
5.32045e-05
5.0608e-05
4.99253e-05
4.6928e-05
4.60852e-05
4.26685e-05
4.07092e-05
3.68847e-05
3.372e-05
2.94187e-05
2.55347e-05
2.27374e-05
2.18827e-05
2.29828e-05
3.42252e-05
5.11507e-05
7.79156e-05
0.000105655
0.000135903
0.000158684
0.000161085
0.000197956
0.000247077
0.000304116
0.000345219
0.000445295
0.000479791
0.000495662
0.000509578
0.000517154
0.000522403
0.000512375
0.000489834
0.000461051
0.000432788
0.00040882
0.000384912
0.000361244
0.000335211
0.000312577
0.000291165
0.000284912
0.000290356
0.000295697
0.000306371
0.000317183
0.000319572
0.000322736
0.000319331
0.000319716
0.000318668
0.000345678
0.000371515
0.000388691
0.000397732
0.000402078
0.000393764
0.000383438
0.000366821
0.000343888
0.000320228
0.000303125
0.000304959
0.000312345
0.000329761
0.000339871
0.000345245
0.000345786
0.000343896
0.000338986
0.000335583
0.000332085
0.000327541
0.000319432
0.000307485
0.000291079
0.000272324
0.000255307
0.000250379
0.000235258
0.000225608
0.000229001
0.000223283
0.000221068
0.000218445
0.000223658
0.000225795
0.000233527
0.000243427
0.000237907
0.000217378
0.000176373
0.000170636
0.000187387
0.000205277
0.000224253
0.000239534
0.000256798
0.00026578
0.000265444
0.000257869
0.000264251
0.0002683
0.000253026
0.000222427
0.000192283
0.000171322
0.000170778
0.000167257
0.00014579
0.000123984
0.000118123
0.000126316
0.000135202
0.000147181
0.000158818
0.000168675
0.000179799
0.000191701
0.000202553
0.000211793
0.000220369
0.000230316
0.000244958
0.000263463
0.000279342
0.000294657
0.000316667
0.000347737
0.00037771
0.00040594
0.000429384
0.000454844
0.00047631
0.000497404
0.000511571
0.000533034
0.000549225
0.000569486
0.000588575
0.000609859
0.000621851
0.000637546
0.000642446
0.000654521
0.000659903
0.000664874
0.000660944
0.000657008
0.000642315
0.00062785
0.000603712
0.000584879
0.000558666
0.000546225
0.000526565
0.000529289
0.00053123
0.000562864
0.000602356
0.000687366
0.0007821
0.000935264
0.00105488
0.00121125
0.00125027
0.00126422
0.00124266
0.00117229
0.00111236
0.000989991
0.000861284
0.000690208
0.000499892
0.000393841
0.000353866
0.000326441
0.000218891
0.000206537
0.000121854
5.34862e-05
2.72194e-05
2.77264e-05
2.23923e-05
2.56184e-05
2.12777e-05
2.61265e-05
2.42974e-05
3.92043e-05
3.60509e-05
6.27315e-05
4.24453e-05
4.19765e-05
2.67027e-05
3.58849e-05
3.42596e-05
4.01174e-05
2.90921e-05
2.70128e-05
2.70161e-05
2.90862e-05
4.02355e-05
3.41486e-05
3.60321e-05
2.65459e-05
4.16672e-05
4.21863e-05
6.30329e-05
3.66003e-05
4.00419e-05
2.46504e-05
2.6185e-05
2.08717e-05
2.47313e-05
2.11188e-05
2.59727e-05
2.37659e-05
3.07614e-05
3.76691e-05
7.31866e-05
0.000121553
0.00019049
0.000218451
0.000250373
0.000279463
0.000325273
0.000345864
0.000334806
0.000287457
0.000254347
0.00021707
0.000186826
0.000159885
0.000137112
0.000119359
0.0001027
9.09766e-05
7.88142e-05
7.08978e-05
6.20032e-05
5.66273e-05
5.01136e-05
4.64331e-05
4.16736e-05
3.91853e-05
3.57044e-05
3.41142e-05
3.15073e-05
3.05731e-05
2.861e-05
2.80008e-05
2.66121e-05
2.60303e-05
2.50247e-05
2.45242e-05
2.36621e-05
2.31739e-05
2.23916e-05
2.18973e-05
2.13017e-05
2.0963e-05
2.06007e-05
2.06732e-05
2.05249e-05
2.06636e-05
2.07834e-05
2.09354e-05
2.10187e-05
2.13464e-05
2.1682e-05
2.183e-05
2.21431e-05
2.26432e-05
2.33897e-05
2.43302e-05
2.53471e-05
2.67949e-05
2.86552e-05
3.11002e-05
3.40976e-05
3.73685e-05
4.11222e-05
4.46146e-05
4.79838e-05
4.98998e-05
5.11e-05
5.06862e-05
4.96531e-05
4.7578e-05
4.57056e-05
4.3712e-05
4.17886e-05
3.99228e-05
3.77437e-05
3.55878e-05
3.343e-05
3.15482e-05
2.99445e-05
2.89125e-05
2.77023e-05
2.70488e-05
2.73976e-05
3.05608e-05
3.48735e-05
3.80652e-05
4.15705e-05
4.73885e-05
5.37633e-05
6.07657e-05
6.74022e-05
7.42473e-05
8.0237e-05
8.75148e-05
9.32182e-05
9.96737e-05
0.000104741
0.00011166
0.000116472
0.000123226
0.000128163
0.00013275
0.000134441
0.000135155
0.000132314
0.000128311
0.000129531
0.000120493
0.000118662
0.000114397
0.000108164
0.000105025
9.95831e-05
9.76766e-05
9.3928e-05
9.16986e-05
8.77841e-05
8.63069e-05
8.33243e-05
8.23885e-05
8.0214e-05
7.93239e-05
7.67062e-05
7.5991e-05
7.41176e-05
7.36376e-05
7.20315e-05
7.17787e-05
6.99649e-05
6.9525e-05
6.78327e-05
6.75791e-05
6.59947e-05
6.56949e-05
6.40394e-05
6.38635e-05
6.21435e-05
6.19684e-05
6.01897e-05
5.98649e-05
5.85178e-05
5.84861e-05
5.70695e-05
5.67974e-05
5.51736e-05
5.47356e-05
5.29089e-05
5.22735e-05
5.06617e-05
4.96642e-05
4.78043e-05
4.60505e-05
4.41615e-05
4.21305e-05
4.01579e-05
3.71695e-05
3.52685e-05
3.16997e-05
2.94303e-05
2.65607e-05
2.32139e-05
2.16146e-05
2.28097e-05
3.5124e-05
4.85771e-05
7.10409e-05
9.27509e-05
0.00011982
0.000146799
0.000154115
0.000189879
0.000231184
0.00028937
0.000321238
0.000418635
0.000455801
0.000487202
0.000500397
0.000522083
0.000523782
0.000521918
0.000494109
0.000467488
0.000437026
0.000414396
0.000389503
0.000366262
0.000337595
0.00031541
0.000292544
0.000288118
0.000291029
0.00029981
0.00030758
0.000323392
0.000322923
0.000329965
0.000323175
0.00032818
0.000325973
0.000361093
0.000386201
0.00040577
0.000416812
0.000425272
0.000418898
0.000411321
0.000393523
0.000372556
0.00035219
0.000334364
0.000337769
0.000348087
0.000367366
0.000378842
0.000385131
0.000386544
0.000384931
0.000380478
0.000376957
0.000374826
0.00037015
0.000364563
0.000351252
0.000335912
0.000317901
0.000301841
0.000294583
0.000279805
0.000265987
0.000266506
0.000254448
0.000246261
0.000236008
0.000232882
0.000224021
0.000218626
0.000212701
0.000193092
0.000158493
0.000102049
8.63476e-05
9.92237e-05
0.000121442
0.000150224
0.000184288
0.000218935
0.000255846
0.000276408
0.000286388
0.000292093
0.0003033
0.000293674
0.000275391
0.000267236
0.000237655
0.000199701
0.000188899
0.00017584
0.000150002
0.000131265
0.000127624
0.000131161
0.000142029
0.000153994
0.000165492
0.000177356
0.000190617
0.000202613
0.000211767
0.000219668
0.000229306
0.000242906
0.000260703
0.000274843
0.000288638
0.000313828
0.000338122
0.000361233
0.000387319
0.000408952
0.000433872
0.000453088
0.000470304
0.000480868
0.000503761
0.000519394
0.000538626
0.000559483
0.000585009
0.000601696
0.000618482
0.000626772
0.000637049
0.000642669
0.000644068
0.000640561
0.00063576
0.000622611
0.000609405
0.000589933
0.000575766
0.000556615
0.000549462
0.000537911
0.000548165
0.000557204
0.000597444
0.000641321
0.00072912
0.000824247
0.000959098
0.00107251
0.00120159
0.00125682
0.00127098
0.00125832
0.00121329
0.00117708
0.00105293
0.000945696
0.00076877
0.0005542
0.000415387
0.000351225
0.000360668
0.000241257
0.000209258
0.000133809
5.88232e-05
2.85349e-05
2.87859e-05
2.25234e-05
2.60526e-05
2.11196e-05
2.62493e-05
2.42556e-05
3.90775e-05
3.59874e-05
6.26643e-05
4.26509e-05
4.20321e-05
2.63676e-05
3.579e-05
3.42891e-05
4.01993e-05
2.9034e-05
2.70046e-05
2.70041e-05
2.90294e-05
4.02949e-05
3.4146e-05
3.60462e-05
2.63228e-05
4.16848e-05
4.23138e-05
6.3034e-05
3.66401e-05
4.01085e-05
2.47069e-05
2.62502e-05
2.06627e-05
2.49122e-05
2.11007e-05
2.6414e-05
2.363e-05
3.04376e-05
3.52303e-05
6.14937e-05
0.000100915
0.000168442
0.000202168
0.00024153
0.00027052
0.000312714
0.000333996
0.00035501
0.000326252
0.000307129
0.000264387
0.00024149
0.000204824
0.000184565
0.000157396
0.000141607
0.000121747
0.000109684
9.5068e-05
8.58737e-05
7.50296e-05
6.8039e-05
5.99634e-05
5.47181e-05
4.87126e-05
4.48928e-05
4.05186e-05
3.78155e-05
3.4687e-05
3.28367e-05
3.06122e-05
2.94608e-05
2.78464e-05
2.71606e-05
2.60636e-05
2.55971e-05
2.45654e-05
2.41506e-05
2.33352e-05
2.27609e-05
2.21012e-05
2.18233e-05
2.13251e-05
2.10905e-05
2.07048e-05
2.07313e-05
2.05868e-05
2.04511e-05
2.03018e-05
2.00699e-05
1.99693e-05
1.9817e-05
1.98253e-05
1.98058e-05
2.00906e-05
2.0185e-05
2.03678e-05
2.04684e-05
2.09413e-05
2.12964e-05
2.19261e-05
2.24883e-05
2.37165e-05
2.51919e-05
2.74691e-05
3.04336e-05
3.40628e-05
3.76058e-05
4.05251e-05
4.23791e-05
4.31799e-05
4.3373e-05
4.30791e-05
4.22876e-05
4.11208e-05
4.04246e-05
4.11587e-05
4.28028e-05
4.52554e-05
4.80855e-05
5.2391e-05
5.64585e-05
6.26195e-05
6.86439e-05
7.33919e-05
7.75231e-05
8.1672e-05
8.47967e-05
8.97183e-05
9.30963e-05
9.48419e-05
9.62902e-05
0.000100272
0.000103629
0.000107346
0.000111417
0.000115149
0.000120066
0.000123574
0.000129181
0.000130158
0.000133842
0.000130477
0.000132739
0.000123691
0.000129463
0.000116256
0.000118769
0.000111194
0.000108855
0.000102421
0.000100369
9.52636e-05
9.45551e-05
8.9335e-05
8.82849e-05
8.3936e-05
8.36544e-05
8.00291e-05
8.04211e-05
7.69587e-05
7.6908e-05
7.36827e-05
7.42185e-05
7.13589e-05
7.20762e-05
6.94462e-05
6.99967e-05
6.71706e-05
6.77893e-05
6.52306e-05
6.58506e-05
6.32953e-05
6.38658e-05
6.13637e-05
6.19363e-05
5.94197e-05
5.98882e-05
5.7336e-05
5.81089e-05
5.58786e-05
5.65913e-05
5.40699e-05
5.46609e-05
5.19092e-05
5.23208e-05
4.94285e-05
4.99248e-05
4.68611e-05
4.70007e-05
4.34762e-05
4.33648e-05
3.97119e-05
3.92383e-05
3.53225e-05
3.4422e-05
3.10424e-05
2.87767e-05
2.71502e-05
2.38245e-05
2.17075e-05
2.2724e-05
3.43755e-05
4.98316e-05
6.88625e-05
8.94744e-05
0.000115415
0.000139698
0.000148744
0.000182778
0.000220442
0.000276084
0.000312938
0.000411921
0.000446028
0.000478105
0.000490416
0.000507109
0.000508767
0.000505615
0.000482243
0.000459763
0.000428885
0.000409137
0.00038314
0.000364045
0.000335108
0.000316106
0.000291781
0.000289214
0.000291914
0.000300316
0.00030901
0.000323497
0.000324529
0.000330439
0.000326522
0.000329109
0.000328104
0.000357579
0.000388271
0.000405127
0.000420039
0.000423731
0.000422917
0.000411544
0.000399987
0.000376434
0.000359849
0.000343764
0.000348893
0.000359545
0.000383098
0.000396415
0.000406263
0.000408537
0.000408312
0.000402936
0.000398322
0.000393808
0.000387792
0.000378431