/*--------------------------------*- C++ -*----------------------------------*\
| =========                 |                                                 |
| \\      /  F ield         | OpenFOAM: The Open Source CFD Toolbox           |
|  \\    /   O peration     | Version:  v2006                                 |
|   \\  /    A nd           | Website:  www.openfoam.com                      |
|    \\/     M anipulation  |                                                 |
\*---------------------------------------------------------------------------*/
FoamFile
{
    version     2.0;
    format      ascii;
    class       volVectorField;
    location    "185";
    object      U;
}
// * * * * * * * * * * * * * * * * * * * * * * * * * * * * * * * * * * * * * //

dimensions      [0 1 -1 0 0 0 0];


internalField   nonuniform List<vector> 
93840
(
(0.786525 0.0629464 6.79137e-18)
(0.806934 0.0840802 1.68426e-17)
(0.807352 0.072729 1.25486e-16)
(0.81852 0.0522705 -2.88688e-16)
(0.867566 0.0731091 -7.83637e-17)
(0.858494 0.0575706 -8.00495e-16)
(0.861381 0.0685923 2.20346e-16)
(0.846327 0.0389762 -9.86613e-17)
(0.850493 0.0496539 -1.34561e-16)
(0.83597 0.0253398 -1.18932e-16)
(0.819299 0.0401017 9.82261e-18)
(0.82523 0.0146717 1.64734e-16)
(0.808953 0.035945 -2.13336e-17)
(0.811116 0.00270673 1.96814e-16)
(0.79713 0.0271017 9.80603e-17)
(0.798666 -0.00260232 4.71359e-17)
(0.779871 0.0196738 -1.45766e-17)
(0.78335 -0.00492607 -5.55904e-17)
(0.764286 0.0137653 -7.41855e-17)
(0.76723 -0.00429085 -9.48768e-17)
(0.734024 0.00935146 -1.02766e-16)
(0.700963 -0.00240256 -8.30986e-17)
(0.649174 0.00728164 -8.00924e-17)
(0.622592 -0.000375489 -6.94609e-17)
(0.5907 0.00316547 -6.39578e-17)
(0.579202 -0.0041168 -6.27272e-17)
(0.579091 -0.00213848 -5.53917e-17)
(0.572626 -0.0087611 -5.74932e-17)
(0.558266 -0.00439304 -4.75431e-17)
(0.532286 -0.00527695 -5.06092e-17)
(0.513301 -0.00491533 -4.3747e-17)
(0.452138 -0.0110992 -4.62068e-17)
(0.462261 -0.0278532 -4.17094e-17)
(0.485187 -0.0278244 -4.61023e-17)
(0.448932 -0.0258977 -4.19876e-17)
(0.467115 -0.0267662 -4.59886e-17)
(0.441022 -0.0231945 -4.23307e-17)
(0.454315 -0.0251225 -4.59236e-17)
(0.432926 -0.0211062 -4.2637e-17)
(0.44271 -0.0225615 -4.59385e-17)
(0.425272 -0.0184767 -4.2962e-17)
(0.434099 -0.0195042 -4.59559e-17)
(0.41915 -0.0164762 -4.33588e-17)
(0.426491 -0.0169316 -4.59823e-17)
(0.413028 -0.0148574 -4.38302e-17)
(0.418579 -0.0147889 -4.60242e-17)
(0.405737 -0.0127629 -4.43322e-17)
(0.410903 -0.0119118 -4.61566e-17)
(0.400211 -0.0105209 -4.48364e-17)
(0.403398 -0.00963475 -4.64251e-17)
(0.393814 -0.00789003 -4.53198e-17)
(0.397653 -0.0070612 -4.68304e-17)
(0.387782 -0.00615409 -4.58629e-17)
(0.388525 -0.00444506 -4.72675e-17)
(0.381348 -0.00137186 -4.65605e-17)
(0.386014 -0.00020965 -4.77677e-17)
(0.379013 0.000128784 -4.74291e-17)
(0.381474 0.000368162 -4.83419e-17)
(0.373112 0.00128152 -4.8309e-17)
(0.372629 0.00368467 -4.90971e-17)
(0.367473 0.00523023 -4.92847e-17)
(0.368461 0.00612268 -5.0123e-17)
(0.362394 0.00821569 -5.03487e-17)
(0.364248 0.0103703 -5.11861e-17)
(0.360416 0.0114901 -5.14697e-17)
(0.360789 0.0130627 -5.25778e-17)
(0.357696 0.0148988 -5.302e-17)
(0.359818 0.0163103 -5.3977e-17)
(0.356811 0.0174219 -5.45549e-17)
(0.357685 0.0191522 -5.54046e-17)
(0.355712 0.0204363 -5.63612e-17)
(0.356688 0.0219663 -5.69348e-17)
(0.355282 0.0235378 -5.81385e-17)
(0.357272 0.0249692 -5.88185e-17)
(0.356157 0.0262148 -6.1147e-17)
(0.357954 0.0278439 -6.24503e-17)
(0.35758 0.0290911 -6.29972e-17)
(0.359058 0.0307028 -6.45998e-17)
(0.359566 0.0321268 -6.57772e-17)
(0.361508 0.0333418 -6.75979e-17)
(0.36171 0.0345887 -6.9361e-17)
(0.363424 0.0360665 -7.02858e-17)
(0.36415 0.037599 -7.16556e-17)
(0.366857 0.039323 -7.26933e-17)
(0.368837 0.0405759 -7.44754e-17)
(0.371377 0.0420199 -7.48615e-17)
(0.373784 0.0433789 -7.57992e-17)
(0.376419 0.0446606 -7.73025e-17)
(0.378609 0.0460794 -7.741e-17)
(0.381367 0.047796 -7.83636e-17)
(0.385021 0.0497081 -7.64196e-17)
(0.389501 0.051244 -7.80033e-17)
(0.393637 0.0527264 -7.81542e-17)
(0.398455 0.0542647 -7.86586e-17)
(0.403404 0.055803 -7.65481e-17)
(0.409239 0.0573737 -7.6668e-17)
(0.41504 0.0586825 -7.42291e-17)
(0.421003 0.060099 -7.72201e-17)
(0.427262 0.0614828 -7.53628e-17)
(0.434271 0.0629866 -7.31352e-17)
(0.441558 0.0641335 -7.6432e-17)
(0.44861 0.0652591 -7.46127e-17)
(0.455393 0.0671862 -7.23057e-17)
(0.469455 0.0706311 -7.76008e-17)
(0.485762 0.070087 -7.6215e-17)
(0.490701 0.0668712 -8.33481e-17)
(0.492775 0.067394 -7.68347e-17)
(0.503285 0.0702013 -8.40506e-17)
(0.51595 0.0707376 -7.4956e-17)
(0.528605 0.0709172 -8.34426e-17)
(0.54127 0.070425 -7.84825e-17)
(0.553947 0.0697805 -8.87699e-17)
(0.566159 0.0687979 -8.44777e-17)
(0.581081 0.0682759 -9.30385e-17)
(0.594915 0.0659099 -8.7755e-17)
(0.608771 0.0633726 -9.26192e-17)
(0.621407 0.0600795 -9.21047e-17)
(0.636695 0.0574541 -9.34097e-17)
(0.649728 0.0523158 -9.14967e-17)
(0.663472 0.0480068 -9.18535e-17)
(0.674646 0.0417626 -8.96982e-17)
(0.687849 0.0372303 -8.77589e-17)
(0.695185 0.0286427 -8.62159e-17)
(0.704946 0.0234568 -8.52312e-17)
(0.708564 0.0134161 -8.30692e-17)
(0.708437 0.0082164 -8.30766e-17)
(0.715359 1.89959e-05 -8.11327e-17)
(0.708766 -0.00664279 -8.2049e-17)
(0.712903 -0.0106715 -8.13678e-17)
(0.711423 -0.0187828 -8.31765e-17)
(0.70673 -0.0233866 -8.31739e-17)
(0.706383 -0.0288194 -8.54106e-17)
(0.699907 -0.0323001 -8.58193e-17)
(0.701297 -0.036584 -8.86198e-17)
(0.697088 -0.0410403 -8.83272e-17)
(0.697256 -0.0456426 -9.13798e-17)
(0.691547 -0.0489837 -9.02741e-17)
(0.691696 -0.0515149 -9.19427e-17)
(0.687393 -0.0553449 -9.14029e-17)
(0.687874 -0.0580198 -9.30275e-17)
(0.686287 -0.062459 -9.27347e-17)
(0.685682 -0.065465 -9.50394e-17)
(0.68262 -0.0698654 -9.4483e-17)
(0.681567 -0.0714993 -9.37665e-17)
(0.679872 -0.0753904 -9.39722e-17)
(0.678286 -0.0778969 -9.38216e-17)
(0.67765 -0.0820989 -9.28264e-17)
(0.675878 -0.0854602 -9.33227e-17)
(0.673789 -0.0905152 -9.30499e-17)
(0.670306 -0.093299 -9.26746e-17)
(0.668115 -0.097671 -9.37723e-17)
(0.665443 -0.101064 -9.28585e-17)
(0.662557 -0.10586 -9.36894e-17)
(0.658998 -0.109306 -9.21112e-17)
(0.655372 -0.113878 -9.21251e-17)
(0.650849 -0.117286 -9.16925e-17)
(0.645886 -0.12257 -9.13178e-17)
(0.64022 -0.12685 -8.91664e-17)
(0.633848 -0.132034 -8.87978e-17)
(0.627236 -0.133673 -8.64685e-17)
(0.621598 -0.13742 -8.57784e-17)
(0.614641 -0.143224 -8.25275e-17)
(0.607353 -0.15119 -8.17251e-17)
(0.600174 -0.156009 -7.96174e-17)
(0.591349 -0.159952 -7.93169e-17)
(0.579249 -0.162714 -7.68793e-17)
(0.564934 -0.167838 -7.63602e-17)
(0.550028 -0.173839 -7.37659e-17)
(0.537489 -0.18338 -7.33429e-17)
(0.524971 -0.190358 -7.02784e-17)
(0.506685 -0.192498 -7.16028e-17)
(0.480717 -0.190459 -6.97721e-17)
(0.45284 -0.193667 -6.98627e-17)
(0.42743 -0.201642 -6.86793e-17)
(0.399852 -0.208405 -6.75183e-17)
(0.365729 -0.200955 -6.84266e-17)
(0.318887 -0.193969 -6.79725e-17)
(0.262133 -0.178746 -6.78859e-17)
(0.205447 -0.155513 -6.69182e-17)
(0.13866 -0.114304 -6.705e-17)
(0.0912001 -0.064852 -6.49715e-17)
(-0.0141248 0.0899314 -4.22848e-17)
(-0.0193802 0.184921 -5.58547e-17)
(-0.0198228 0.424941 -6.74031e-17)
(0.102195 0.547061 -7.09959e-17)
(0.229834 0.730282 -7.51177e-17)
(0.457932 0.802805 -7.73771e-17)
(0.613642 0.82558 -6.86749e-17)
(0.725882 0.721218 -6.70723e-17)
(0.785339 0.655034 -7.58063e-17)
(0.909798 0.672276 -7.66454e-17)
(1.00456 0.678128 -7.22267e-17)
(1.0584 0.635079 -7.17376e-17)
(1.07027 0.551122 -6.77407e-17)
(1.13896 0.504381 -6.86406e-17)
(1.15746 0.478008 -7.72527e-17)
(1.18254 0.478964 -7.49739e-17)
(1.17448 0.437972 -6.64633e-17)
(1.18599 0.404867 -6.90747e-17)
(1.18821 0.373391 -7.48601e-17)
(1.18177 0.359681 -7.38803e-17)
(1.17761 0.344189 -7.25351e-17)
(1.17089 0.324887 -7.26959e-17)
(1.1659 0.308427 -7.43659e-17)
(1.15862 0.292545 -7.41461e-17)
(1.15138 0.279688 -7.57548e-17)
(1.1426 0.267019 -7.54458e-17)
(1.13594 0.255808 -7.71027e-17)
(1.12641 0.243153 -7.69419e-17)
(1.11856 0.232875 -7.88271e-17)
(1.11014 0.22201 -7.89789e-17)
(1.10154 0.21153 -8.12591e-17)
(1.09431 0.201867 -8.16624e-17)
(1.08732 0.192107 -8.44128e-17)
(1.07881 0.183188 -8.55148e-17)
(1.07083 0.174929 -8.80059e-17)
(1.06056 0.166831 -8.85102e-17)
(1.05341 0.158967 -9.17509e-17)
(1.04628 0.15173 -9.32272e-17)
(1.04271 0.144124 -9.68973e-17)
(1.03804 0.135638 -9.78997e-17)
(1.03439 0.128095 -1.01552e-16)
(1.02438 0.12132 -1.02617e-16)
(1.0146 0.115435 -1.05643e-16)
(1.00283 0.109711 -1.06151e-16)
(0.994696 0.104837 -1.08227e-16)
(0.985205 0.099909 -1.0883e-16)
(0.97817 0.0952734 -1.10713e-16)
(0.964383 0.0902755 -1.09721e-16)
(0.957079 0.085682 -1.10542e-16)
(0.952381 0.0824235 -1.09299e-16)
(0.954301 0.0748303 -1.09514e-16)
(0.95408 0.0696277 -1.06423e-16)
(0.9537 0.0639899 -1.05123e-16)
(0.950804 0.0577668 -1.01663e-16)
(0.948347 0.0534286 -1.00672e-16)
(0.940616 0.0506652 -9.70523e-17)
(0.942067 0.0461508 -9.5449e-17)
(0.939653 0.0428248 -9.21378e-17)
(0.941597 0.0382945 -8.99173e-17)
(0.938735 0.0345949 -8.66425e-17)
(0.944789 0.0307434 -8.50887e-17)
(0.940454 0.0270218 -8.19301e-17)
(0.945 0.0216084 -7.91204e-17)
(0.941066 0.0181052 -7.56162e-17)
(0.940711 0.0125855 -7.28795e-17)
(0.936655 0.010649 -6.96065e-17)
(0.939652 0.0026565 -6.71626e-17)
(0.92534 0.000964249 -6.48071e-17)
(0.928887 -0.0031334 -6.29362e-17)
(0.94254 -0.011711 -6.20579e-17)
(0.926504 -0.0136509 -6.07675e-17)
(0.942989 -0.0205548 -6.21944e-17)
(0.926897 -0.0248555 -6.14134e-17)
(0.94783 -0.0313004 -6.5255e-17)
(0.929273 -0.0346434 -6.49394e-17)
(0.949961 -0.0421932 -7.02151e-17)
(0.932125 -0.0463459 -7.12626e-17)
(0.918496 -0.0525353 -7.5999e-17)
(0.844128 -0.0517406 -7.9674e-17)
(0.636318 -0.0360712 -8.32724e-17)
(0.369966 -0.0254155 -9.09455e-17)
(0.296036 -0.0236726 -9.74198e-17)
(0.291947 -0.0252769 -1.0225e-16)
(0.300581 -0.0275158 -1.02371e-16)
(0.308585 -0.0292624 -1.02969e-16)
(0.313772 -0.0311707 -9.87654e-17)
(0.316969 -0.0339167 -9.64803e-17)
(0.311878 -0.035403 -8.92673e-17)
(0.308927 -0.0341236 -8.46944e-17)
(0.316775 -0.0343658 -7.82718e-17)
(0.322262 -0.0374596 -7.32024e-17)
(0.316977 -0.0399065 -6.58443e-17)
(0.308808 -0.0388197 -6.16387e-17)
(0.309329 -0.0377554 -5.62469e-17)
(0.311909 -0.0390036 -5.23584e-17)
(0.309468 -0.040964 -4.72237e-17)
(0.303034 -0.0414104 -4.55993e-17)
(0.297974 -0.0410819 -4.21829e-17)
(0.293834 -0.0411026 -3.95771e-17)
(0.28904 -0.0411637 -3.70039e-17)
(0.284067 -0.0412118 -3.45757e-17)
(0.278455 -0.0410759 -3.39385e-17)
(0.272929 -0.0409557 -3.44844e-17)
(0.266709 -0.0406473 -3.37789e-17)
(0.260743 -0.0401191 -3.59327e-17)
(0.255169 -0.0396351 -3.62364e-17)
(0.249471 -0.039179 -3.75046e-17)
(0.24394 -0.0387549 -3.56895e-17)
(0.237899 -0.0382188 -3.72495e-17)
(0.232424 -0.0377159 -3.54379e-17)
(0.226155 -0.0370837 -3.65823e-17)
(0.220882 -0.0365668 -3.76877e-17)
(0.214297 -0.0358093 -3.53529e-17)
(0.209451 -0.0352958 -3.54217e-17)
(0.202566 -0.0344418 -3.4818e-17)
(0.198204 -0.0339701 -3.48314e-17)
(0.190903 -0.0330143 -3.39894e-17)
(0.187066 -0.032563 -3.4465e-17)
(0.179383 -0.0314253 -3.25804e-17)
(0.176474 -0.0310486 -3.30155e-17)
(0.168567 -0.0299076 -3.22801e-17)
(0.166383 -0.0298111 -3.20634e-17)
(0.157549 -0.0286071 -3.22033e-17)
(0.155662 -0.0284687 -3.0446e-17)
(0.146272 -0.0268548 -3.12105e-17)
(0.145751 -0.0267751 -3.00454e-17)
(0.136235 -0.0251206 -2.80979e-17)
(0.136861 -0.0253228 -2.82129e-17)
(0.126804 -0.0236287 -2.75145e-17)
(0.128274 -0.023994 -2.73202e-17)
(0.117578 -0.022116 -2.58391e-17)
(0.12011 -0.0225705 -2.6686e-17)
(0.109139 -0.0205336 -2.46039e-17)
(0.112995 -0.0212479 -2.55048e-17)
(0.101671 -0.0192279 -2.36301e-17)
(0.106368 -0.0202222 -2.31319e-17)
(0.0943146 -0.0181082 -2.24465e-17)
(0.0997074 -0.0191888 -2.30384e-17)
(0.0870722 -0.0168366 -2.17713e-17)
(0.0937163 -0.0180433 -2.16387e-17)
(0.0807523 -0.0156001 -2.22783e-17)
(0.088702 -0.0171219 -2.07096e-17)
(0.0752 -0.0146262 -2.09398e-17)
(0.0840952 -0.0164036 -2.03853e-17)
(0.0699377 -0.0137687 -1.9633e-17)
(0.0799983 -0.0159108 -2.0402e-17)
(0.065447 -0.0129232 -1.92096e-17)
(0.0765833 -0.016009 -2.03279e-17)
(0.0628089 -0.0118712 -1.84343e-17)
(0.0732561 -0.0179801 -2.10384e-17)
(0.0645624 -0.0108014 -1.63208e-17)
(0.0694996 -0.0232216 -2.38009e-17)
(0.0742197 -0.0171319 -1.22897e-17)
(0.0776777 -0.0237631 -2.72623e-17)
(0.0750821 -0.0844912 -8.43923e-18)
(0.139145 -0.00175906 -2.97925e-17)
(0.205468 0.000802 -2.09382e-17)
(0.285748 0.0129625 -3.94506e-17)
(0.379134 0.0157233 -3.37335e-17)
(0.459049 0.0121012 -4.93061e-17)
(0.531904 0.0111136 -4.78034e-17)
(0.574192 0.00324635 -6.00698e-17)
(0.586342 0.00556635 -6.02527e-17)
(0.613934 0.000737818 -6.58644e-17)
(0.637801 0.00778845 -7.62128e-17)
(0.690647 -0.00112902 -8.07564e-17)
(0.729133 0.00964422 -1.00104e-16)
(0.766536 -0.00364653 -9.65537e-17)
(0.7664 0.0137176 -7.38176e-17)
(0.783446 -0.0053103 -3.11652e-17)
(0.780507 0.0194052 4.41262e-17)
(0.798564 -0.0024446 5.23567e-18)
(0.797183 0.0270442 1.47785e-16)
(0.81087 0.00256513 7.2987e-17)
(0.809064 0.0361647 2.53486e-16)
(0.824694 0.0149201 7.03317e-17)
(0.819416 0.0400451 8.19126e-17)
(0.835832 0.0250442 1.51602e-16)
(0.849494 0.0505064 4.03129e-16)
(0.846479 0.0391277 -8.85692e-18)
(0.860994 0.0685913 2.60216e-16)
(0.858455 0.0572565 2.12148e-17)
(0.867848 0.0729455 -4.8146e-16)
(0.818458 0.0526994 1.78623e-16)
(0.807384 0.0723843 8.55559e-17)
(0.807043 0.0842303 -3.74287e-17)
(0.786523 0.0634734 -1.07941e-18)
(0.786546 0.0633475 3.39955e-18)
(0.807004 0.0842611 -3.74343e-17)
(0.807361 0.0722828 9.85286e-17)
(0.818475 0.0526286 2.71279e-16)
(0.867948 0.072894 -5.31548e-16)
(0.858648 0.0572404 -1.9143e-16)
(0.86121 0.0685739 1.04017e-16)
(0.846566 0.0388224 -8.20411e-17)
(0.849537 0.0505489 3.23332e-16)
(0.83609 0.0249614 9.98553e-17)
(0.819236 0.0400533 7.85398e-17)
(0.824686 0.0148677 3.71552e-17)
(0.808856 0.0362382 2.32052e-16)
(0.810675 0.00262546 1.10778e-16)
(0.797406 0.0270311 1.4581e-16)
(0.79882 -0.00229753 -1.47843e-17)
(0.780355 0.0194214 4.30924e-17)
(0.783309 -0.00512087 -2.10017e-17)
(0.766988 0.0138745 -7.51316e-17)
(0.769208 -0.00342885 -9.7532e-17)
(0.741048 0.0100409 -1.05334e-16)
(0.713076 -0.00108937 -8.80592e-17)
(0.664174 0.00854305 -8.48963e-17)
(0.638932 0.00164804 -7.38636e-17)
(0.608496 0.00722893 -6.85312e-17)
(0.58608 0.0027842 -6.61694e-17)
(0.568645 0.00460626 -5.95704e-17)
(0.561526 -0.00263615 -6.09433e-17)
(0.549735 -0.00309646 -5.60216e-17)
(0.542368 -0.014956 -5.48974e-17)
(0.541216 -0.0126549 -5.23357e-17)
(0.534861 -0.0314136 -5.30465e-17)
(0.52717 -0.00368438 -5.10047e-17)
(0.518723 -0.0272522 -5.28135e-17)
(0.512563 -0.016169 -5.10327e-17)
(0.50625 -0.0235635 -5.27991e-17)
(0.501008 -0.0196936 -5.11513e-17)
(0.496334 -0.0213921 -5.2846e-17)
(0.49066 -0.0199032 -5.13596e-17)
(0.487488 -0.0194311 -5.29833e-17)
(0.481433 -0.0180979 -5.15583e-17)
(0.480052 -0.0172136 -5.3179e-17)
(0.473475 -0.0160537 -5.19172e-17)
(0.473195 -0.0152556 -5.33701e-17)
(0.465941 -0.0141207 -5.23291e-17)
(0.46615 -0.0134778 -5.36372e-17)
(0.458309 -0.0118991 -5.27614e-17)
(0.459086 -0.0109327 -5.39389e-17)
(0.451818 -0.00951684 -5.32664e-17)
(0.452042 -0.00867431 -5.43265e-17)
(0.44514 -0.00688174 -5.38354e-17)
(0.4461 -0.00608735 -5.48365e-17)
(0.438634 -0.00481048 -5.44369e-17)
(0.438476 -0.00353715 -5.54005e-17)
(0.432828 -0.000642179 -5.51779e-17)
(0.434807 0.00066324 -5.61272e-17)
(0.428801 0.00165308 -5.61153e-17)
(0.430034 0.00198934 -5.69161e-17)
(0.423553 0.00296212 -5.70835e-17)
(0.422349 0.00514452 -5.7795e-17)
(0.417693 0.00691591 -5.81689e-17)
(0.417981 0.00812321 -5.89466e-17)
(0.413146 0.0101228 -5.93476e-17)
(0.414147 0.0122842 -6.02863e-17)
(0.410741 0.0136466 -6.07938e-17)
(0.410938 0.0153498 -6.17809e-17)
(0.408321 0.0172975 -6.24097e-17)
(0.409961 0.0188549 -6.35705e-17)
(0.407452 0.0202237 -6.42721e-17)
(0.408223 0.0220118 -6.54138e-17)
(0.406577 0.023523 -6.65754e-17)
(0.407568 0.0251683 -6.78461e-17)
(0.4065 0.0269295 -6.88619e-17)
(0.408417 0.0285083 -7.03043e-17)
(0.407673 0.029969 -7.13199e-17)
(0.409562 0.0317502 -7.24404e-17)
(0.409502 0.0332008 -7.4196e-17)
(0.411176 0.0349687 -7.552e-17)
(0.411939 0.0365999 -7.63106e-17)
(0.414053 0.038012 -7.80719e-17)
(0.414644 0.0394788 -7.90035e-17)
(0.416703 0.0410968 -8.03036e-17)
(0.41785 0.0428361 -8.12694e-17)
(0.420874 0.044699 -8.31391e-17)
(0.423206 0.0461842 -8.35439e-17)
(0.426179 0.047834 -8.47016e-17)
(0.428977 0.0493998 -8.51269e-17)
(0.432102 0.0509104 -8.55256e-17)
(0.434869 0.0525556 -8.58732e-17)
(0.438279 0.0544543 -8.60917e-17)
(0.442531 0.0565508 -8.60542e-17)
(0.447599 0.0582756 -8.80369e-17)
(0.452399 0.0599759 -8.56925e-17)
(0.457954 0.0617066 -8.63333e-17)
(0.463639 0.0634442 -8.44613e-17)
(0.470255 0.0652218 -8.53087e-17)
(0.476814 0.066708 -8.47414e-17)
(0.483684 0.0683256 -8.42271e-17)
(0.490846 0.0698583 -8.43672e-17)
(0.498799 0.0715431 -8.63394e-17)
(0.507044 0.0728344 -8.40466e-17)
(0.515276 0.0741386 -8.45887e-17)
(0.523496 0.0760152 -8.86816e-17)
(0.538445 0.07947 -8.79867e-17)
(0.554775 0.0791211 -8.87148e-17)
(0.560687 0.0760408 -8.90662e-17)
(0.564685 0.0765652 -8.71554e-17)
(0.576562 0.0792545 -9.05338e-17)
(0.590193 0.079728 -8.91815e-17)
(0.603979 0.0798355 -9.43436e-17)
(0.617744 0.0792112 -9.15096e-17)
(0.631569 0.078369 -9.88457e-17)
(0.644995 0.0770823 -9.64688e-17)
(0.660924 0.0763835 -1.02877e-16)
(0.67556 0.0735591 -1.00236e-16)
(0.690317 0.070715 -1.04582e-16)
(0.703857 0.0668833 -1.01863e-16)
(0.719802 0.0636838 -1.03206e-16)
(0.733201 0.0580164 -1.00757e-16)
(0.74738 0.0528947 -1.00722e-16)
(0.758668 0.0461011 -9.72659e-17)
(0.771847 0.0405387 -9.8289e-17)
(0.778821 0.0315382 -9.48188e-17)
(0.788382 0.0247698 -9.49822e-17)
(0.791293 0.0138667 -9.23381e-17)
(0.791335 0.00857819 -9.24669e-17)
(0.797316 -0.000562552 -9.10133e-17)
(0.790651 -0.00744619 -9.24124e-17)
(0.794443 -0.0124293 -9.21457e-17)
(0.791837 -0.0214382 -9.43762e-17)
(0.787275 -0.0253945 -9.47036e-17)
(0.786205 -0.0327565 -9.74915e-17)
(0.779618 -0.0362423 -9.813e-17)
(0.780423 -0.0418355 -1.00705e-16)
(0.775634 -0.0453424 -1.00764e-16)
(0.775362 -0.0510839 -1.02318e-16)
(0.769371 -0.0539469 -1.02073e-16)
(0.769009 -0.0590776 -1.03645e-16)
(0.764325 -0.0612393 -1.02839e-16)
(0.764362 -0.0653504 -1.04593e-16)
(0.762102 -0.0680647 -1.04212e-16)
(0.760855 -0.0733129 -1.05328e-16)
(0.757412 -0.075793 -1.04797e-16)
(0.755809 -0.0801331 -1.05766e-16)
(0.753362 -0.083029 -1.05004e-16)
(0.751102 -0.087332 -1.0576e-16)
(0.749609 -0.0906678 -1.04768e-16)
(0.746888 -0.0952501 -1.05899e-16)
(0.744067 -0.0989266 -1.04649e-16)
(0.739739 -0.103442 -1.05959e-16)
(0.736682 -0.106759 -1.04521e-16)
(0.732847 -0.111466 -1.05643e-16)
(0.729078 -0.115232 -1.04004e-16)
(0.724275 -0.120341 -1.04077e-16)
(0.719483 -0.124292 -1.03043e-16)
(0.713258 -0.129317 -1.02402e-16)
(0.707263 -0.132722 -1.00748e-16)
(0.700311 -0.137572 -9.89089e-17)
(0.692992 -0.141191 -9.68281e-17)
(0.68393 -0.146293 -9.60183e-17)
(0.675631 -0.149469 -9.34256e-17)
(0.666704 -0.153166 -9.08115e-17)
(0.658209 -0.156603 -8.87283e-17)
(0.647121 -0.161992 -8.79044e-17)
(0.633066 -0.16758 -8.55763e-17)
(0.617365 -0.17387 -8.31447e-17)
(0.602676 -0.177452 -8.11845e-17)
(0.586445 -0.179231 -8.12176e-17)
(0.569269 -0.179984 -7.76395e-17)
(0.547563 -0.183582 -7.95458e-17)
(0.521785 -0.187407 -7.65231e-17)
(0.49446 -0.191437 -7.67257e-17)
(0.469693 -0.190647 -7.40682e-17)
(0.439857 -0.186969 -7.53881e-17)
(0.400924 -0.181202 -7.38011e-17)
(0.357601 -0.177195 -7.41886e-17)
(0.315179 -0.168236 -7.42173e-17)
(0.266866 -0.153905 -7.38679e-17)
(0.214915 -0.123806 -7.19248e-17)
(0.155386 -0.0759231 -7.24371e-17)
(0.111038 -0.0110048 -6.87298e-17)
(0.0540122 0.0894769 -5.46038e-17)
(0.0473275 0.220593 -8.15414e-17)
(0.0477414 0.350832 -9.05551e-17)
(0.142107 0.451915 -9.35034e-17)
(0.276725 0.610147 -9.86673e-17)
(0.458763 0.661778 -9.9199e-17)
(0.623443 0.70635 -9.25661e-17)
(0.761305 0.702413 -8.81046e-17)
(0.814825 0.683877 -9.95706e-17)
(0.904963 0.659141 -1.02489e-16)
(1.00305 0.63002 -9.44013e-17)
(1.0966 0.611643 -9.05565e-17)
(1.13361 0.585237 -8.68891e-17)
(1.19734 0.568469 -8.48278e-17)
(1.20872 0.516827 -9.76953e-17)
(1.24066 0.473913 -9.99061e-17)
(1.24951 0.449616 -8.72022e-17)
(1.2753 0.440587 -8.19877e-17)
(1.28142 0.419653 -8.89281e-17)
(1.27914 0.391577 -8.97117e-17)
(1.27746 0.371449 -8.75084e-17)
(1.27464 0.356031 -8.52886e-17)
(1.27292 0.340662 -8.63153e-17)
(1.2676 0.32421 -8.58593e-17)
(1.26246 0.309702 -8.6785e-17)
(1.25509 0.296121 -8.58988e-17)
(1.24979 0.283319 -8.68418e-17)
(1.24069 0.272034 -8.66968e-17)
(1.23366 0.259937 -8.7814e-17)
(1.2258 0.247993 -8.75176e-17)
(1.2176 0.236717 -8.9032e-17)
(1.21041 0.225825 -8.95989e-17)
(1.20376 0.215414 -9.20579e-17)
(1.19555 0.204881 -9.34101e-17)
(1.18824 0.196199 -9.59771e-17)
(1.17803 0.187564 -9.71601e-17)
(1.17104 0.178962 -1.00235e-16)
(1.16351 0.170264 -1.01813e-16)
(1.15938 0.162777 -1.05757e-16)
(1.15458 0.152498 -1.07226e-16)
(1.15127 0.144146 -1.10856e-16)
(1.14173 0.137278 -1.12102e-16)
(1.13253 0.130526 -1.15461e-16)
(1.12091 0.12423 -1.16234e-16)
(1.1128 0.118962 -1.20037e-16)
(1.10279 0.113254 -1.19952e-16)
(1.09572 0.108264 -1.23097e-16)
(1.08193 0.102416 -1.22603e-16)
(1.07416 0.0979847 -1.24166e-16)
(1.06833 0.0919298 -1.221e-16)
(1.06902 0.0854508 -1.22498e-16)
(1.0682 0.0788793 -1.19724e-16)
(1.06772 0.0719271 -1.18639e-16)
(1.06453 0.0667201 -1.15821e-16)
(1.06253 0.0621801 -1.13403e-16)
(1.05477 0.0563001 -1.09914e-16)
(1.05575 0.0522377 -1.07709e-16)
(1.05284 0.0484258 -1.04176e-16)
(1.05477 0.0437849 -1.01896e-16)
(1.05166 0.0391811 -9.87617e-17)
(1.05755 0.0340173 -9.61532e-17)
(1.05326 0.0290914 -9.27762e-17)
(1.05771 0.0239818 -9.00141e-17)
(1.05411 0.0194854 -8.63973e-17)
(1.05397 0.0141708 -8.32255e-17)
(1.04979 0.00938269 -7.95872e-17)
(1.05257 0.00226056 -7.65968e-17)
(1.04002 0.000879991 -7.38339e-17)
(1.04069 -0.00272599 -7.1187e-17)
(1.05505 -0.0126304 -7.01057e-17)
(1.03909 -0.0156745 -6.79523e-17)
(1.05517 -0.021186 -6.91628e-17)
(1.03965 -0.0272874 -6.75876e-17)
(1.05963 -0.034887 -7.16436e-17)
(1.04181 -0.0402751 -7.04101e-17)
(1.0629 -0.0462304 -7.65485e-17)
(1.04144 -0.0522914 -7.60767e-17)
(1.04363 -0.0576686 -8.34258e-17)
(0.9425 -0.047468 -8.32185e-17)
(0.769372 -0.0330412 -9.01063e-17)
(0.512243 -0.0171376 -9.60781e-17)
(0.419659 -0.0282136 -1.04224e-16)
(0.397784 -0.0342318 -1.10076e-16)
(0.394846 -0.0369702 -1.12432e-16)
(0.395317 -0.0384194 -1.12282e-16)
(0.395323 -0.0400879 -1.11615e-16)
(0.394727 -0.0424876 -1.08044e-16)
(0.387181 -0.0437794 -1.03743e-16)
(0.381802 -0.0426902 -9.9022e-17)
(0.386857 -0.043071 -9.26365e-17)
(0.390403 -0.0457585 -8.6845e-17)
(0.384299 -0.0478187 -7.98422e-17)
(0.375236 -0.0468643 -7.35995e-17)
(0.374012 -0.0460679 -6.64638e-17)
(0.375044 -0.0471846 -6.35492e-17)
(0.371748 -0.0488631 -5.85515e-17)
(0.364735 -0.0492059 -5.36709e-17)
(0.358783 -0.0489161 -4.96652e-17)
(0.353663 -0.0489155 -4.56156e-17)
(0.348013 -0.0489238 -4.44577e-17)
(0.342227 -0.0489203 -4.22758e-17)
(0.335867 -0.048738 -3.95656e-17)
(0.329584 -0.0485495 -3.87009e-17)
(0.322679 -0.048169 -3.86052e-17)
(0.316025 -0.0475994 -3.71632e-17)
(0.309696 -0.0470454 -3.77271e-17)
(0.303334 -0.046539 -3.83411e-17)
(0.297099 -0.0460258 -3.89116e-17)
(0.290482 -0.0454602 -3.84267e-17)
(0.284326 -0.0448621 -3.88636e-17)
(0.277553 -0.044204 -3.88218e-17)
(0.271584 -0.0435544 -3.86081e-17)
(0.264604 -0.0427865 -3.7903e-17)
(0.259029 -0.042109 -3.78853e-17)
(0.251833 -0.0412775 -3.76525e-17)
(0.246698 -0.0406146 -3.77193e-17)
(0.239232 -0.0397192 -3.80831e-17)
(0.234548 -0.0390567 -3.71581e-17)
(0.226857 -0.0380337 -3.74239e-17)
(0.222954 -0.0374119 -3.60015e-17)
(0.215165 -0.0364053 -3.60253e-17)
(0.211863 -0.0359719 -3.52811e-17)
(0.203437 -0.0349247 -3.50847e-17)
(0.200407 -0.0344259 -3.46929e-17)
(0.191647 -0.0331044 -3.35042e-17)
(0.189651 -0.0326426 -3.326e-17)
(0.180972 -0.0313321 -3.28434e-17)
(0.179862 -0.0310529 -3.28488e-17)
(0.170984 -0.0297488 -3.14083e-17)
(0.170506 -0.0295735 -3.14989e-17)
(0.16138 -0.0281711 -3.01771e-17)
(0.161648 -0.0280412 -3.02432e-17)
(0.152579 -0.0265909 -2.94428e-17)
(0.153731 -0.0266268 -2.92129e-17)
(0.144672 -0.025249 -2.87204e-17)
(0.146366 -0.0254424 -2.86984e-17)
(0.137078 -0.0240604 -2.75848e-17)
(0.13913 -0.0242559 -2.75083e-17)
(0.129817 -0.0228279 -2.70184e-17)
(0.13248 -0.0230598 -2.65064e-17)
(0.123394 -0.021711 -2.62372e-17)
(0.12666 -0.0220761 -2.56146e-17)
(0.117655 -0.0208593 -2.54741e-17)
(0.121362 -0.0212976 -2.49692e-17)
(0.112365 -0.0202004 -2.44589e-17)
(0.116601 -0.0206779 -2.40905e-17)
(0.107556 -0.0198336 -2.39252e-17)
(0.112711 -0.0204711 -2.37094e-17)
(0.10307 -0.0199192 -2.30804e-17)
(0.110442 -0.0212303 -2.31817e-17)
(0.0977453 -0.0207925 -2.23887e-17)
(0.110891 -0.0242326 -2.29455e-17)
(0.0891097 -0.0239696 -2.22142e-17)
(0.111115 -0.0323946 -2.19475e-17)
(0.0782071 -0.0398727 -2.38078e-17)
(0.0768263 -0.0267541 -2.54648e-17)
(0.094767 -0.0231856 -1.66832e-17)
(0.133067 -0.0167163 -3.5687e-17)
(0.196889 -0.0026752 -1.79469e-17)
(0.281227 0.0030749 -4.21794e-17)
(0.381419 0.0108618 -3.3793e-17)
(0.481302 0.00695975 -5.14419e-17)
(0.542725 0.00796356 -5.43379e-17)
(0.590341 0.00137783 -6.00293e-17)
(0.619753 0.00746922 -6.95331e-17)
(0.673589 -0.00168255 -7.29219e-17)
(0.717977 0.00945842 -9.48919e-17)
(0.762916 -0.00436688 -9.20762e-17)
(0.764523 0.0133672 -8.23718e-17)
(0.783733 -0.00522198 -2.97126e-17)
(0.780316 0.0196137 -2.68677e-17)
(0.798703 -0.0027358 5.10223e-17)
(0.797067 0.0270415 1.00968e-16)
(0.811239 0.0027255 2.13949e-16)
(0.808756 0.0359346 -7.41228e-17)
(0.825059 0.0147464 1.80793e-16)
(0.819363 0.0401613 2.39508e-17)
(0.835815 0.0253525 -1.4286e-16)
(0.850364 0.049737 -1.02397e-16)
(0.84634 0.0389842 -1.54413e-16)
(0.86109 0.0684956 2.08907e-16)
(0.858779 0.0575153 -4.3951e-16)
(0.867502 0.0731326 -6.47266e-17)
(0.818682 0.0523043 -2.86919e-16)
(0.807397 0.0726919 1.02263e-16)
(0.806973 0.0840233 2.85102e-17)
(0.786554 0.0631527 1.39174e-17)
(0.786491 0.0629387 2.97596e-18)
(0.806873 0.0842697 2.15128e-17)
(0.80734 0.0726796 1.24618e-16)
(0.818428 0.0522672 -2.34333e-16)
(0.867745 0.0730188 -2.5583e-16)
(0.858536 0.0575436 -4.69168e-16)
(0.861069 0.0683965 1.53877e-16)
(0.846564 0.0388583 -1.22316e-16)
(0.850351 0.0497093 -5.57956e-17)
(0.836103 0.0253268 -2.69694e-16)
(0.819335 0.0401509 1.36923e-17)
(0.825293 0.0145765 1.65176e-16)
(0.80836 0.0360923 9.78716e-18)
(0.810857 0.00270266 1.73859e-16)
(0.79745 0.02709 1.16955e-16)
(0.798677 -0.00237839 6.29733e-17)
(0.779252 0.019705 -8.06228e-19)
(0.782997 -0.00461843 -3.37468e-17)
(0.765174 0.0138558 -7.91649e-17)
(0.769652 -0.00410716 -8.76143e-17)
(0.74704 0.00974535 -1.10396e-16)
(0.726303 -0.00227908 -9.26803e-17)
(0.68076 0.00820211 -9.10174e-17)
(0.655678 -2.41318e-05 -7.87692e-17)
(0.63037 0.00444988 -7.50046e-17)
(0.615251 -0.00139383 -7.21254e-17)
(0.596041 0.00137377 -6.45058e-17)
(0.587194 -0.0024763 -6.65645e-17)
(0.579949 -0.000947942 -6.05898e-17)
(0.570466 -0.0064859 -6.37884e-17)
(0.559262 -0.00673384 -5.79889e-17)
(0.554657 -0.0120188 -6.10996e-17)
(0.554716 -0.0158289 -5.86671e-17)
(0.547183 -0.0183142 -5.94351e-17)
(0.540501 -0.0189175 -5.8563e-17)
(0.540707 -0.0203509 -5.93215e-17)
(0.530639 -0.0191198 -5.8639e-17)
(0.532022 -0.0203025 -5.93943e-17)
(0.522199 -0.0182774 -5.8857e-17)
(0.523056 -0.0190218 -5.95612e-17)
(0.514494 -0.0167333 -5.91038e-17)
(0.515106 -0.0170887 -5.97967e-17)
(0.507596 -0.015052 -5.93937e-17)
(0.507837 -0.0150257 -6.01138e-17)
(0.500814 -0.0133034 -5.97583e-17)
(0.500637 -0.012915 -6.04553e-17)
(0.493775 -0.0112639 -6.01967e-17)
(0.493554 -0.0103677 -6.08845e-17)
(0.487582 -0.00898215 -6.07271e-17)
(0.486685 -0.00792959 -6.13802e-17)
(0.481126 -0.00634677 -6.13382e-17)
(0.480883 -0.0053607 -6.19745e-17)
(0.474864 -0.00381369 -6.20398e-17)
(0.473665 -0.00257777 -6.26594e-17)
(0.469305 -0.000233367 -6.28394e-17)
(0.470054 0.00107151 -6.35185e-17)
(0.46508 0.00251266 -6.38319e-17)
(0.465352 0.00313314 -6.44776e-17)
(0.460215 0.00415762 -6.48479e-17)
(0.45845 0.00616612 -6.54973e-17)
(0.454573 0.00798249 -6.60417e-17)
(0.454363 0.00954753 -6.66969e-17)
(0.45037 0.0115503 -6.73565e-17)
(0.450819 0.013644 -6.81481e-17)
(0.448079 0.0151971 -6.89006e-17)
(0.448028 0.0169923 -6.98008e-17)
(0.44594 0.0189776 -7.05473e-17)
(0.447264 0.0206476 -7.16342e-17)
(0.445355 0.0222162 -7.26082e-17)
(0.445975 0.0240854 -7.36112e-17)
(0.444807 0.0257596 -7.46969e-17)
(0.445767 0.0275795 -7.58307e-17)
(0.445141 0.0294403 -7.7019e-17)
(0.447003 0.0311253 -7.81706e-17)
(0.446747 0.032769 -7.90934e-17)
(0.448678 0.0346544 -8.03968e-17)
(0.449049 0.0362746 -8.1634e-17)
(0.450879 0.0381608 -8.27258e-17)
(0.452013 0.0399459 -8.41538e-17)
(0.45433 0.0415071 -8.52615e-17)
(0.455382 0.0431802 -8.62617e-17)
(0.45773 0.0449737 -8.72875e-17)
(0.459348 0.0468531 -8.80573e-17)
(0.462656 0.0488589 -8.94747e-17)
(0.46543 0.0505218 -8.98453e-17)
(0.468818 0.0523177 -9.07225e-17)
(0.472088 0.0540684 -9.02481e-17)
(0.475719 0.0557526 -9.10053e-17)
(0.479071 0.0575972 -9.13158e-17)
(0.483072 0.0596548 -9.13251e-17)
(0.487876 0.061927 -9.17188e-17)
(0.493509 0.0638387 -9.01951e-17)
(0.498962 0.0657366 -9.03928e-17)
(0.505164 0.0676406 -9.06188e-17)
(0.511554 0.0695408 -9.08138e-17)
(0.518851 0.0714657 -9.03486e-17)
(0.526155 0.0731302 -9.12963e-17)
(0.533817 0.0749052 -8.97335e-17)
(0.541786 0.0765875 -9.20181e-17)
(0.550565 0.07841 -9.26e-17)
(0.559647 0.0798466 -9.27962e-17)
(0.568802 0.0813161 -9.33442e-17)
(0.577989 0.0832297 -9.21569e-17)
(0.593381 0.0865889 -9.2728e-17)
(0.609937 0.0862426 -9.39275e-17)
(0.617086 0.0833952 -9.38324e-17)
(0.622541 0.0838871 -9.54738e-17)
(0.635186 0.0865653 -9.62165e-17)
(0.649459 0.0869196 -9.93433e-17)
(0.663982 0.0869779 -1.01965e-16)
(0.67838 0.086186 -1.02058e-16)
(0.692857 0.0852343 -1.07203e-16)
(0.706867 0.083701 -1.07407e-16)
(0.723151 0.0827046 -1.10802e-16)
(0.737969 0.0795873 -1.10892e-16)
(0.753024 0.0763037 -1.11337e-16)
(0.766672 0.0719491 -1.09209e-16)
(0.782516 0.0684207 -1.09949e-16)
(0.795586 0.0620025 -1.06101e-16)
(0.809439 0.0565995 -1.07119e-16)
(0.820191 0.0488817 -1.03351e-16)