/*--------------------------------*- C++ -*----------------------------------*\
| =========                 |                                                 |
| \\      /  F ield         | OpenFOAM: The Open Source CFD Toolbox           |
|  \\    /   O peration     | Version:  v2006                                 |
|   \\  /    A nd           | Website:  www.openfoam.com                      |
|    \\/     M anipulation  |                                                 |
\*---------------------------------------------------------------------------*/
FoamFile
{
    version     2.0;
    format      ascii;
    class       volVectorField;
    location    "185";
    object      UMean;
}
// * * * * * * * * * * * * * * * * * * * * * * * * * * * * * * * * * * * * * //

dimensions      [0 1 -1 0 0 0 0];


internalField   nonuniform List<vector> 
93840
(
(0.844049 0.0190323 -9.53004e-19)
(0.839984 0.0206212 7.22321e-17)
(0.839841 0.0221882 3.17752e-17)
(0.838662 0.0222094 -2.76787e-16)
(0.842029 0.0248709 2.29231e-17)
(0.841305 0.0229936 -5.25165e-16)
(0.840137 0.02488 3.56367e-16)
(0.834961 0.0217867 5.8796e-17)
(0.835283 0.0227818 -5.87303e-17)
(0.835453 0.0192038 -3.26688e-17)
(0.836347 0.0194249 -2.62197e-17)
(0.834547 0.015386 1.51734e-16)
(0.831519 0.0149917 -6.08684e-17)
(0.825693 0.0109926 1.66652e-16)
(0.819289 0.0105123 2.23916e-17)
(0.810459 0.00719023 5.41401e-17)
(0.801992 0.00783276 2.55828e-17)
(0.79237 0.00598241 -1.0243e-17)
(0.783764 0.00782901 1.47972e-17)
(0.771409 0.00745317 -2.52095e-17)
(0.75051 0.0097009 1.72042e-18)
(0.708877 0.0103095 -3.68716e-17)
(0.65931 0.0140592 -3.52191e-18)
(0.612535 0.0174831 -4.19347e-17)
(0.575348 0.020004 -6.03476e-18)
(0.550888 0.020233 -3.73554e-17)
(0.545385 0.0209773 -5.76316e-18)
(0.533685 0.0171118 -2.82012e-17)
(0.521766 0.0145046 -4.6545e-18)
(0.500772 0.0125883 -2.36607e-17)
(0.482805 0.00826115 -6.41e-18)
(0.433595 -8.41194e-05 -2.24896e-17)
(0.432858 -0.0205353 -9.24694e-18)
(0.449784 -0.0229091 -2.11192e-17)
(0.40702 -0.0218095 -1.04024e-17)
(0.425323 -0.0233252 -2.0032e-17)
(0.39336 -0.0201599 -1.13636e-17)
(0.407587 -0.0218828 -1.91444e-17)
(0.381569 -0.0183905 -1.20621e-17)
(0.391843 -0.0194815 -1.84671e-17)
(0.370904 -0.0159582 -1.25813e-17)
(0.379365 -0.0166917 -1.78919e-17)
(0.361948 -0.0140221 -1.29804e-17)
(0.368142 -0.0143665 -1.74094e-17)
(0.353323 -0.0124574 -1.32998e-17)
(0.357017 -0.012445 -1.70033e-17)
(0.343878 -0.0105628 -1.35156e-17)
(0.346646 -0.00993051 -1.6673e-17)
(0.335859 -0.00860355 -1.37134e-17)
(0.336905 -0.00796685 -1.63556e-17)
(0.327425 -0.00639365 -1.38376e-17)
(0.328555 -0.00577725 -1.60932e-17)
(0.319722 -0.0049347 -1.394e-17)
(0.317972 -0.00358726 -1.58959e-17)
(0.311512 -0.00102326 -1.39159e-17)
(0.31346 -0.000132023 -1.5761e-17)
(0.308216 0.000164658 -1.39801e-17)
(0.307273 0.000353669 -1.55662e-17)
(0.3003 0.00113856 -1.39854e-17)
(0.298509 0.00298714 -1.538e-17)
(0.294994 0.00428442 -1.40909e-17)
(0.293492 0.00488998 -1.52275e-17)
(0.288953 0.00656758 -1.41201e-17)
(0.288829 0.00821274 -1.50061e-17)
(0.286503 0.00913833 -1.3813e-17)
(0.285613 0.0103218 -1.50272e-17)
(0.283943 0.0118424 -1.39282e-17)
(0.28439 0.0128951 -1.47492e-17)
(0.282993 0.0138218 -1.37376e-17)
(0.283009 0.015132 -1.41612e-17)
(0.282725 0.0162365 -1.36379e-17)
(0.282844 0.017368 -1.33993e-17)
(0.283163 0.0187417 -1.30713e-17)
(0.284283 0.0198424 -1.28318e-17)
(0.284878 0.0209512 -1.41287e-17)
(0.286123 0.0222429 -1.49509e-17)
(0.28747 0.0233792 -1.32993e-17)
(0.289008 0.0246833 -1.40999e-17)
(0.291269 0.0259939 -1.36058e-17)
(0.293588 0.0270559 -1.47162e-17)
(0.295597 0.0282572 -1.54398e-17)
(0.298009 0.0295442 -1.52425e-17)
(0.300689 0.0310314 -1.54991e-17)
(0.304419 0.0326005 -1.54819e-17)
(0.308378 0.0339053 -1.67362e-17)
(0.31219 0.0353009 -1.60338e-17)
(0.316547 0.03669 -1.65136e-17)
(0.320672 0.0379994 -1.79107e-17)
(0.324892 0.0394913 -1.75464e-17)
(0.3294 0.041245 -1.85625e-17)
(0.335172 0.0432477 -1.56626e-17)
(0.341593 0.0448791 -1.7898e-17)
(0.347955 0.0465731 -1.80758e-17)
(0.354971 0.0483021 -1.90839e-17)
(0.36214 0.0500751 -1.65207e-17)
(0.370189 0.0518767 -1.72303e-17)
(0.378395 0.0534564 -1.43906e-17)
(0.38692 0.055177 -1.86143e-17)
(0.39578 0.0568787 -1.61988e-17)
(0.405578 0.0587376 -1.43719e-17)
(0.415679 0.060288 -1.79494e-17)
(0.425595 0.0618294 -1.60843e-17)
(0.435233 0.0641339 -1.34178e-17)
(0.45225 0.0679681 -1.92972e-17)
(0.471372 0.0679654 -1.73525e-17)
(0.478691 0.0651888 -2.49118e-17)
(0.482792 0.0660092 -1.74896e-17)
(0.495661 0.0690945 -2.46217e-17)
(0.510587 0.0699689 -1.40796e-17)
(0.525473 0.0704603 -2.17815e-17)
(0.540373 0.0702809 -1.49076e-17)
(0.555293 0.0699083 -2.36086e-17)
(0.56983 0.0692019 -1.68937e-17)
(0.587334 0.0689679 -2.34977e-17)
(0.603993 0.0668632 -1.61425e-17)
(0.620735 0.0645978 -1.99717e-17)
(0.636239 0.0615135 -1.88627e-17)
(0.654366 0.0590176 -2.07041e-17)
(0.669875 0.0539448 -1.95611e-17)
(0.686231 0.0496054 -2.13407e-17)
(0.700222 0.0433289 -2.05092e-17)
(0.715863 0.038661 -2.03003e-17)
(0.725044 0.0298621 -2.01666e-17)
(0.736369 0.0240603 -2.09194e-17)
(0.738803 0.0134388 -2.01991e-17)
(0.740737 0.00822063 -2.17385e-17)
(0.74782 -0.000648261 -2.06386e-17)
(0.739714 -0.00733749 -2.20235e-17)
(0.745739 -0.0119439 -2.10318e-17)
(0.743434 -0.0204968 -2.2324e-17)
(0.739766 -0.0248223 -2.13983e-17)
(0.73764 -0.0310312 -2.25875e-17)
(0.73286 -0.0346695 -2.16412e-17)
(0.732175 -0.0392823 -2.32801e-17)
(0.72993 -0.0435327 -2.1985e-17)
(0.727522 -0.048383 -2.44572e-17)
(0.723069 -0.0516244 -2.27976e-17)
(0.721569 -0.0551455 -2.41604e-17)
(0.718694 -0.058276 -2.32349e-17)
(0.718191 -0.0614692 -2.46173e-17)
(0.71731 -0.0651597 -2.37636e-17)
(0.716301 -0.0692292 -2.56856e-17)
(0.713188 -0.072704 -2.47513e-17)
(0.711859 -0.0755992 -2.41125e-17)
(0.710651 -0.0791239 -2.4311e-17)
(0.709798 -0.0825255 -2.46005e-17)
(0.708999 -0.0863708 -2.39262e-17)
(0.70832 -0.0905 -2.47959e-17)
(0.706314 -0.0950057 -2.46077e-17)
(0.703793 -0.0988113 -2.45601e-17)
(0.701635 -0.102846 -2.57243e-17)
(0.699503 -0.106994 -2.51743e-17)
(0.696839 -0.111499 -2.63481e-17)
(0.693734 -0.115918 -2.57977e-17)
(0.690075 -0.120397 -2.64881e-17)
(0.686378 -0.12493 -2.67884e-17)
(0.681952 -0.129688 -2.74729e-17)
(0.677209 -0.13451 -2.73253e-17)
(0.670926 -0.139257 -2.84802e-17)
(0.664706 -0.143061 -2.7451e-17)
(0.659707 -0.147365 -2.81952e-17)
(0.655176 -0.153014 -2.74041e-17)
(0.648413 -0.15932 -2.85686e-17)
(0.640883 -0.165346 -2.80569e-17)
(0.632098 -0.171861 -2.90989e-17)
(0.622055 -0.178312 -2.87092e-17)
(0.609984 -0.184316 -2.96416e-17)
(0.598158 -0.189737 -2.87445e-17)
(0.586252 -0.196444 -3.07563e-17)
(0.572354 -0.204633 -2.95986e-17)
(0.55358 -0.212027 -3.11304e-17)
(0.53237 -0.217569 -3.03906e-17)
(0.509462 -0.221501 -3.17303e-17)
(0.487026 -0.227402 -3.15795e-17)
(0.456622 -0.23412 -3.15518e-17)
(0.421175 -0.237036 -3.22583e-17)
(0.37862 -0.23769 -3.18194e-17)
(0.326521 -0.228487 -3.24302e-17)
(0.266528 -0.207637 -3.26108e-17)
(0.204446 -0.175882 -3.36128e-17)
(0.136227 -0.135564 -3.34664e-17)
(0.0418579 -0.0167601 -4.25208e-17)
(0.0151046 0.109527 -3.54235e-18)
(0.0020231 0.349558 -6.32374e-18)
(0.0773162 0.483426 -7.70785e-18)
(0.19559 0.667739 -1.11041e-17)
(0.432064 0.721331 -1.29263e-17)
(0.573352 0.7379 -1.26737e-17)
(0.687606 0.670557 -1.35199e-17)
(0.733929 0.640066 -1.31958e-17)
(0.830689 0.630734 -1.34972e-17)
(0.907005 0.597817 -1.36297e-17)
(0.96079 0.555695 -1.39306e-17)
(0.998522 0.517505 -1.39706e-17)
(1.02634 0.478387 -1.43998e-17)
(1.0292 0.440279 -1.46518e-17)
(1.03505 0.408643 -1.53534e-17)
(1.03534 0.379668 -1.55764e-17)
(1.03221 0.353933 -1.63077e-17)
(1.02681 0.329839 -1.73387e-17)
(1.01664 0.309775 -1.74107e-17)
(1.00839 0.292616 -1.83935e-17)
(1.00221 0.277165 -1.85161e-17)
(0.996431 0.263289 -1.98476e-17)
(0.990972 0.250293 -1.91628e-17)
(0.984285 0.238777 -2.10109e-17)
(0.979056 0.228608 -2.05409e-17)
(0.974721 0.218835 -2.20872e-17)
(0.970933 0.20993 -2.14344e-17)
(0.968402 0.201718 -2.31846e-17)
(0.968789 0.194153 -2.27416e-17)
(0.968581 0.186492 -2.45135e-17)
(0.967233 0.178953 -2.38127e-17)
(0.96555 0.171171 -2.53423e-17)
(0.962168 0.16374 -2.49604e-17)
(0.956774 0.156576 -2.61685e-17)
(0.95241 0.150119 -2.52547e-17)
(0.948669 0.14342 -2.67726e-17)
(0.944932 0.137141 -2.61422e-17)
(0.943156 0.130603 -2.77393e-17)
(0.945443 0.123831 -2.69804e-17)
(0.941309 0.116882 -2.87362e-17)
(0.932106 0.11086 -2.81557e-17)
(0.921599 0.105059 -2.94585e-17)
(0.910051 0.0996462 -2.87116e-17)
(0.89807 0.0947221 -2.91536e-17)
(0.887707 0.0900055 -2.89552e-17)
(0.878289 0.0855219 -2.99042e-17)
(0.8709 0.0813814 -2.90524e-17)
(0.865246 0.0777605 -3.01356e-17)
(0.867497 0.0743781 -3.03638e-17)
(0.873405 0.0689304 -3.188e-17)
(0.87088 0.0637543 -3.09874e-17)
(0.868817 0.0581067 -3.17244e-17)
(0.860656 0.052895 -3.12486e-17)
(0.84989 0.0485964 -3.29541e-17)
(0.839441 0.0447521 -3.25665e-17)
(0.829124 0.0407235 -3.36104e-17)
(0.819911 0.0372146 -3.34663e-17)
(0.812077 0.0331815 -3.36358e-17)
(0.805451 0.0297603 -3.36177e-17)
(0.799399 0.0256236 -3.4688e-17)
(0.792825 0.0222028 -3.50665e-17)
(0.78597 0.0176862 -3.50588e-17)
(0.776816 0.0142884 -3.53242e-17)
(0.767722 0.0100742 -3.56494e-17)
(0.759994 0.00745589 -3.58286e-17)
(0.753321 0.00149178 -3.61481e-17)
(0.7391 0.000286364 -3.63105e-17)
(0.73959 -0.0022316 -3.66671e-17)
(0.736257 -0.00906768 -3.67918e-17)
(0.723975 -0.0110834 -3.69328e-17)
(0.716687 -0.0152509 -3.73057e-17)
(0.706894 -0.0188111 -3.73632e-17)
(0.69688 -0.0232403 -3.77596e-17)
(0.684399 -0.0260946 -3.78789e-17)
(0.673905 -0.0297856 -3.81191e-17)
(0.661645 -0.0334805 -3.85472e-17)
(0.64692 -0.0371213 -3.82117e-17)
(0.630292 -0.039544 -3.95757e-17)
(0.61328 -0.0420939 -3.91197e-17)
(0.595563 -0.0439144 -3.97409e-17)
(0.58029 -0.045948 -3.86045e-17)
(0.565164 -0.0475187 -3.91427e-17)
(0.550289 -0.0490706 -3.77333e-17)
(0.535029 -0.0498419 -3.94689e-17)
(0.521921 -0.0512004 -3.78379e-17)
(0.506236 -0.0536344 -3.96906e-17)
(0.482587 -0.0544001 -3.78376e-17)
(0.461904 -0.050601 -3.9025e-17)
(0.456119 -0.0490931 -3.86595e-17)
(0.449496 -0.0519367 -3.99161e-17)
(0.431263 -0.054033 -3.85343e-17)
(0.411241 -0.051493 -4.06688e-17)
(0.402863 -0.0490632 -4.08519e-17)
(0.398133 -0.0496929 -4.13564e-17)
(0.387344 -0.0510659 -3.97642e-17)
(0.371898 -0.0505249 -4.1041e-17)
(0.358226 -0.049107 -3.88656e-17)
(0.345869 -0.0481717 -3.84728e-17)
(0.334401 -0.0473664 -3.75059e-17)
(0.321518 -0.0462817 -3.5817e-17)
(0.307383 -0.0451185 -3.78721e-17)
(0.296387 -0.0444442 -3.92724e-17)
(0.285477 -0.0434994 -3.91695e-17)
(0.275422 -0.0423891 -4.21696e-17)
(0.266813 -0.0414785 -4.01172e-17)
(0.258515 -0.0406002 -4.02542e-17)
(0.250221 -0.0397084 -3.76871e-17)
(0.241654 -0.0387239 -3.97517e-17)
(0.232946 -0.037694 -3.67706e-17)
(0.224536 -0.0367776 -4.08916e-17)
(0.216892 -0.0358745 -3.83266e-17)
(0.20856 -0.0347625 -3.79555e-17)
(0.200293 -0.0335835 -4.07755e-17)
(0.191034 -0.0322563 -4.17328e-17)
(0.182322 -0.0312474 -4.41243e-17)
(0.175018 -0.0303797 -4.33112e-17)
(0.16788 -0.0292425 -4.30137e-17)
(0.160434 -0.0280044 -4.03009e-17)
(0.153005 -0.0266171 -4.66476e-17)
(0.144568 -0.0252549 -4.31715e-17)
(0.137153 -0.0243007 -4.57295e-17)
(0.129337 -0.0231673 -4.07672e-17)
(0.121426 -0.0221543 -3.98929e-17)
(0.116044 -0.0208362 -4.16166e-17)
(0.106791 -0.0186776 -3.06176e-17)
(0.0973632 -0.0176617 -3.70517e-17)
(0.0916589 -0.017052 -3.86504e-17)
(0.0850149 -0.0157584 -3.74906e-17)
(0.0793484 -0.0146004 -3.73746e-17)
(0.0718586 -0.0131395 -3.72228e-17)
(0.0657529 -0.0120522 -3.83726e-17)
(0.0586288 -0.0106869 -3.52398e-17)
(0.0535247 -0.0097175 -3.84411e-17)
(0.0467248 -0.00802641 -3.22665e-17)
(0.0413282 -0.00683475 -3.82704e-17)
(0.0338914 -0.0058594 -3.53737e-17)
(0.0312826 -0.00589835 -3.87444e-17)
(0.0273188 -0.00506334 -3.32061e-17)
(0.0274419 -0.00505059 -4.08859e-17)
(0.0243535 -0.00441626 -3.15189e-17)
(0.0259073 -0.00501225 -3.84184e-17)
(0.0239455 -0.00496137 -3.58086e-17)
(0.0281225 -0.00601559 -3.96506e-17)
(0.0269416 -0.00578798 -3.84122e-17)
(0.0335044 -0.00746178 -4.27329e-17)
(0.0325397 -0.0074378 -3.74418e-17)
(0.0422602 -0.0102257 -4.47035e-17)
(0.0421464 -0.00974879 -3.73265e-17)
(0.0545575 -0.0143913 -4.56206e-17)
(0.0565529 -0.0138285 -3.68976e-17)
(0.0708802 -0.0206947 -4.66719e-17)
(0.0746642 -0.02574 -3.48978e-17)
(0.101215 -0.0337902 -5.0317e-17)
(0.0964129 -0.0761675 -3.05467e-17)
(0.159325 0.0113451 -5.22255e-17)
(0.226379 0.0137412 -1.7483e-17)
(0.29892 0.0267945 -4.29127e-17)
(0.380615 0.0303197 -8.9108e-18)
(0.444942 0.032995 -3.52523e-17)
(0.504476 0.0311204 -3.88934e-18)
(0.541263 0.024828 -3.65965e-17)
(0.568132 0.0219998 -4.52899e-18)
(0.596166 0.0188222 -4.08272e-17)
(0.647039 0.0143982 -7.28823e-18)
(0.702024 0.0105671 -3.89959e-17)
(0.747579 0.00985409 -4.6998e-18)
(0.770813 0.00746278 -2.6898e-17)
(0.783627 0.00775817 2.31192e-17)
(0.792344 0.00596117 -2.1443e-17)
(0.801807 0.00784189 6.89925e-17)
(0.810352 0.00720522 -7.82152e-18)
(0.819191 0.0105441 1.36981e-16)
(0.8257 0.0110369 -3.74782e-17)
(0.831489 0.0150703 3.31544e-16)
(0.834504 0.0154755 -3.12515e-17)
(0.836301 0.0195096 2.57276e-16)
(0.835408 0.0193187 -1.04573e-16)
(0.835122 0.0229154 1.44984e-16)
(0.834812 0.0219353 -9.76084e-17)
(0.840011 0.0250189 -4.06191e-17)
(0.841169 0.0231612 -8.12964e-17)
(0.841988 0.0249868 -3.75218e-16)
(0.838648 0.0223564 1.50568e-16)
(0.839834 0.0222937 -1.94803e-17)
(0.839984 0.0207423 -6.51571e-18)
(0.844074 0.0191582 -5.82594e-17)
(0.844062 0.0191635 -5.44635e-17)
(0.839978 0.020748 2.86535e-18)
(0.83983 0.0222987 -1.11015e-17)
(0.83864 0.0223599 1.18234e-16)
(0.841979 0.024991 -3.5465e-16)
(0.841178 0.0231667 -9.55236e-17)
(0.840033 0.0250235 -9.88343e-17)
(0.834827 0.021941 -9.1957e-17)
(0.835113 0.0229231 1.37451e-16)
(0.835373 0.0193232 -3.25987e-17)
(0.836257 0.0195202 2.66203e-16)
(0.834468 0.015489 -5.55937e-17)
(0.831478 0.0150879 2.7722e-16)
(0.825718 0.0110691 -3.45462e-17)
(0.819261 0.0105967 1.3646e-16)
(0.810487 0.00729209 -1.77689e-17)
(0.802029 0.00795849 7.06929e-17)
(0.792725 0.00611909 -1.47721e-17)
(0.784665 0.00797807 2.42141e-17)
(0.774549 0.00770312 -2.80805e-17)
(0.759196 0.010102 7.72452e-20)
(0.725774 0.0109464 -3.64925e-17)
(0.681326 0.0148906 -5.71242e-18)
(0.639235 0.018797 -3.95189e-17)
(0.607636 0.0223582 -5.79746e-18)
(0.569918 0.0244152 -4.03799e-17)
(0.551833 0.0253122 -7.9198e-18)
(0.534574 0.0212464 -3.23297e-17)
(0.521373 0.0138873 -1.18984e-17)
(0.511222 0.00447467 -2.71558e-17)
(0.506518 0.000490027 -1.17261e-17)
(0.498645 -0.0116072 -2.44157e-17)
(0.490451 0.00117558 -1.3129e-17)
(0.478254 -0.0178522 -2.29877e-17)
(0.47132 -0.0105858 -1.41761e-17)
(0.460826 -0.0175697 -2.186e-17)
(0.455167 -0.0138256 -1.49649e-17)
(0.446334 -0.0165531 -2.09783e-17)
(0.440745 -0.0142741 -1.55696e-17)
(0.433376 -0.0150581 -2.03476e-17)
(0.427847 -0.0130238 -1.5917e-17)
(0.42213 -0.0131446 -1.98895e-17)
(0.416448 -0.01157 -1.62448e-17)
(0.411699 -0.0114344 -1.94742e-17)
(0.405817 -0.01018 -1.64627e-17)
(0.401396 -0.00991892 -1.91918e-17)
(0.395354 -0.00847009 -1.65291e-17)
(0.391545 -0.00783504 -1.89639e-17)
(0.385919 -0.00661708 -1.65421e-17)
(0.382121 -0.00602607 -1.86927e-17)
(0.376692 -0.00455104 -1.66377e-17)
(0.373479 -0.00395847 -1.84228e-17)
(0.368027 -0.0029794 -1.66248e-17)
(0.36406 -0.00191233 -1.81601e-17)
(0.359802 0.000444013 -1.65351e-17)
(0.358478 0.00129143 -1.79927e-17)
(0.354679 0.00193035 -1.64938e-17)
(0.351954 0.00220422 -1.77158e-17)
(0.346982 0.00312627 -1.63616e-17)
(0.343992 0.00471854 -1.75409e-17)
(0.341149 0.00613109 -1.63313e-17)
(0.338793 0.00682772 -1.72576e-17)
(0.33533 0.00853588 -1.61787e-17)
(0.334314 0.0100813 -1.70879e-17)
(0.332494 0.0112155 -1.61013e-17)
(0.331244 0.0124559 -1.6971e-17)
(0.329951 0.0140188 -1.60172e-17)
(0.330005 0.0151799 -1.69078e-17)
(0.329036 0.0163023 -1.60093e-17)
(0.328895 0.0176694 -1.67116e-17)
(0.328923 0.0189064 -1.64094e-17)
(0.329113 0.0201527 -1.70996e-17)
(0.329654 0.0216231 -1.64346e-17)
(0.330865 0.0228898 -1.72807e-17)
(0.331725 0.0241366 -1.6483e-17)
(0.333283 0.0255615 -1.67568e-17)
(0.334988 0.0268543 -1.70208e-17)
(0.336848 0.0283282 -1.75044e-17)
(0.339358 0.0297803 -1.63953e-17)
(0.341919 0.0310294 -1.75869e-17)
(0.344472 0.0323883 -1.70291e-17)
(0.347446 0.0338615 -1.75828e-17)
(0.350661 0.0354684 -1.72569e-17)
(0.354962 0.0372201 -1.87472e-17)
(0.359459 0.0387208 -1.80626e-17)
(0.364164 0.0403854 -1.8851e-17)
(0.369223 0.0420459 -1.87656e-17)
(0.374272 0.043636 -1.87782e-17)
(0.379374 0.0453757 -1.88748e-17)
(0.384909 0.0473298 -1.90655e-17)
(0.3917 0.0495233 -1.89107e-17)
(0.399167 0.051477 -2.17809e-17)
(0.406653 0.0533714 -1.84657e-17)
(0.414775 0.0553559 -2.00408e-17)
(0.423083 0.0573414 -1.75409e-17)
(0.432375 0.0594096 -1.94554e-17)
(0.441661 0.0612417 -1.84735e-17)
(0.4513 0.0632176 -1.8659e-17)
(0.4612 0.0651202 -1.84578e-17)
(0.471964 0.067185 -2.12194e-17)
(0.482943 0.0688853 -1.81604e-17)
(0.493926 0.0705992 -1.93696e-17)
(0.504866 0.0728338 -2.33433e-17)
(0.522763 0.0766801 -2.24207e-17)
(0.541979 0.0768938 -2.2719e-17)
(0.550283 0.0743377 -2.27528e-17)
(0.556445 0.0751298 -2.01145e-17)
(0.57081 0.0781502 -2.28483e-17)
(0.586888 0.0789878 -2.00165e-17)
(0.603102 0.0794533 -2.39018e-17)
(0.619297 0.0791573 -1.88525e-17)
(0.635582 0.0786469 -2.4187e-17)
(0.651557 0.0776486 -1.91844e-17)
(0.670292 0.0772415 -2.36841e-17)
(0.687958 0.0746995 -1.92693e-17)
(0.705792 0.0720698 -2.31399e-17)
(0.722334 0.0684133 -2.03738e-17)
(0.741213 0.0654206 -2.26945e-17)
(0.757202 0.0597355 -2.13269e-17)
(0.774096 0.0546326 -2.29729e-17)
(0.78822 0.0477273 -2.11244e-17)
(0.803782 0.0421765 -2.40158e-17)
(0.812518 0.0328401 -2.21427e-17)
(0.823468 0.0263447 -2.41113e-17)
(0.825239 0.0149625 -2.285e-17)
(0.827351 0.00923464 -2.43136e-17)
(0.83328 7.00749e-05 -2.32649e-17)
(0.825301 -0.0075286 -2.469e-17)
(0.830877 -0.0122875 -2.36746e-17)
(0.82743 -0.0216276 -2.5065e-17)
(0.823818 -0.0262368 -2.41483e-17)
(0.820985 -0.0332654 -2.56022e-17)
(0.816087 -0.0371924 -2.4724e-17)
(0.814838 -0.042562 -2.61876e-17)
(0.811931 -0.0470205 -2.53361e-17)
(0.809065 -0.0525297 -2.64425e-17)
(0.804325 -0.0560226 -2.55937e-17)
(0.802405 -0.0601991 -2.68953e-17)
(0.799135 -0.0635681 -2.56834e-17)
(0.798134 -0.0673756 -2.71638e-17)
(0.796531 -0.0712462 -2.62026e-17)
(0.794933 -0.0758408 -2.71156e-17)
(0.791404 -0.0795081 -2.63378e-17)
(0.78963 -0.0829675 -2.74478e-17)
(0.78777 -0.0866371 -2.67462e-17)
(0.786279 -0.0905347 -2.79379e-17)
(0.784668 -0.0944872 -2.71674e-17)
(0.78312 -0.0990614 -2.85562e-17)
(0.780279 -0.103644 -2.73838e-17)
(0.777048 -0.107955 -2.9008e-17)
(0.774005 -0.112099 -2.77556e-17)
(0.770883 -0.11672 -2.93136e-17)
(0.767218 -0.1213 -2.84241e-17)
(0.763078 -0.126192 -2.96892e-17)
(0.758387 -0.130745 -2.94214e-17)
(0.753531 -0.135727 -2.98514e-17)
(0.747874 -0.140477 -2.9869e-17)
(0.741815 -0.145646 -3.03348e-17)
(0.734361 -0.150314 -2.98394e-17)
(0.726905 -0.154483 -3.05528e-17)
(0.720009 -0.158541 -3.02226e-17)
(0.712973 -0.164084 -3.03988e-17)
(0.703727 -0.169713 -3.00344e-17)
(0.69349 -0.175385 -3.05394e-17)
(0.681646 -0.180861 -3.02557e-17)
(0.668386 -0.186509 -3.06641e-17)
(0.653109 -0.191123 -3.03704e-17)
(0.637494 -0.195338 -3.17029e-17)
(0.620729 -0.199728 -3.01058e-17)
(0.601591 -0.205488 -3.27501e-17)
(0.578123 -0.209915 -3.02895e-17)
(0.552694 -0.213051 -3.22033e-17)
(0.52504 -0.213618 -3.02738e-17)
(0.49663 -0.215074 -3.19996e-17)
(0.460819 -0.215774 -3.08861e-17)
(0.42082 -0.212956 -3.15628e-17)
(0.373426 -0.207158 -3.16433e-17)
(0.321191 -0.195329 -3.2317e-17)
(0.26782 -0.173794 -3.1342e-17)
(0.213216 -0.133454 -3.34155e-17)
(0.153704 -0.0773025 -3.18183e-17)
(0.0947171 0.0218186 -3.77509e-17)
(0.0802892 0.155083 -9.92598e-19)
(0.0658172 0.290306 -7.6111e-18)
(0.164823 0.416087 -2.07205e-17)
(0.260382 0.561145 -2.73356e-17)
(0.411192 0.60809 -3.0419e-17)
(0.569387 0.644409 -3.34716e-17)
(0.685657 0.618271 -3.40892e-17)
(0.751806 0.609479 -3.53086e-17)
(0.843551 0.607089 -3.49093e-17)
(0.923753 0.583486 -3.55058e-17)
(0.987793 0.552865 -3.45699e-17)
(1.03573 0.521778 -3.49387e-17)
(1.07524 0.488422 -3.37031e-17)
(1.09024 0.456353 -3.39403e-17)
(1.10476 0.429555 -3.26225e-17)
(1.11324 0.403417 -3.29522e-17)
(1.1163 0.381148 -3.1339e-17)
(1.11704 0.358858 -3.1859e-17)
(1.11208 0.340808 -3.05563e-17)
(1.10715 0.324306 -3.12888e-17)
(1.10344 0.308404 -3.00084e-17)
(1.09939 0.29375 -3.10325e-17)
(1.09524 0.279858 -3.00343e-17)
(1.08949 0.267412 -3.10138e-17)
(1.08444 0.256043 -3.00847e-17)
(1.07992 0.245146 -3.10071e-17)
(1.07594 0.234905 -3.04658e-17)
(1.07288 0.225317 -3.14772e-17)
(1.07264 0.215959 -3.07077e-17)
(1.07207 0.207443 -3.16104e-17)
(1.07047 0.198881 -3.12101e-17)
(1.06875 0.190494 -3.24533e-17)
(1.06563 0.182425 -3.22351e-17)
(1.0607 0.174834 -3.32018e-17)
(1.05645 0.167836 -3.29361e-17)
(1.05284 0.160546 -3.41559e-17)
(1.04928 0.153373 -3.34737e-17)
(1.04724 0.14647 -3.49061e-17)
(1.04937 0.138337 -3.42476e-17)
(1.04606 0.130931 -3.55105e-17)
(1.03775 0.124751 -3.46393e-17)
(1.02795 0.118708 -3.567e-17)
(1.01689 0.112993 -3.47619e-17)
(1.00519 0.107665 -3.67037e-17)
(0.994689 0.102338 -3.51934e-17)
(0.985057 0.0972427 -3.69896e-17)
(0.977216 0.0924322 -3.62006e-17)
(0.971039 0.0879334 -3.76156e-17)
(0.97181 0.0835232 -3.65554e-17)
(0.977017 0.0775473 -3.79938e-17)
(0.974561 0.0719493 -3.73071e-17)
(0.972631 0.065914 -3.80881e-17)
(0.965093 0.0603913 -3.83901e-17)
(0.95465 0.0556961 -3.85294e-17)
(0.944206 0.0513831 -3.86223e-17)
(0.933676 0.0468456 -3.92776e-17)
(0.924 0.0428247 -3.93318e-17)
(0.91559 0.0381289 -3.97435e-17)
(0.908303 0.0342252 -4.03454e-17)
(0.901675 0.0294602 -4.03887e-17)
(0.894512 0.0256822 -4.07766e-17)
(0.88728 0.0206175 -4.10267e-17)
(0.877686 0.0169088 -4.14307e-17)
(0.868216 0.0121236 -4.1607e-17)
(0.859432 0.00905834 -4.1788e-17)
(0.852486 0.00254092 -4.21268e-17)
(0.837813 0.000972731 -4.22881e-17)
(0.836376 -0.00233645 -4.26014e-17)
(0.83278 -0.00960205 -4.28954e-17)
(0.820175 -0.0118313 -4.29642e-17)
(0.812153 -0.0166431 -4.32372e-17)
(0.801636 -0.0205955 -4.33231e-17)
(0.791079 -0.0255502 -4.38574e-17)
(0.777888 -0.0287907 -4.37196e-17)
(0.766471 -0.0330274 -4.44493e-17)
(0.753346 -0.0370908 -4.40524e-17)
(0.738011 -0.0411307 -4.51109e-17)
(0.720363 -0.0438633 -4.43339e-17)
(0.702371 -0.0467959 -4.47794e-17)
(0.683601 -0.0489187 -4.4508e-17)
(0.667026 -0.0514117 -4.54483e-17)
(0.65055 -0.0532873 -4.57855e-17)
(0.634333 -0.0551265 -4.61978e-17)
(0.617966 -0.0561541 -4.53848e-17)
(0.603342 -0.0577128 -4.65409e-17)
(0.586775 -0.0601649 -4.5891e-17)
(0.563059 -0.0609581 -4.60701e-17)
(0.541015 -0.0575953 -4.66476e-17)
(0.532676 -0.0564701 -4.60375e-17)
(0.524165 -0.0591443 -4.60719e-17)
(0.505217 -0.0610882 -4.53662e-17)
(0.48355 -0.0586905 -4.52605e-17)
(0.472214 -0.0563731 -4.32289e-17)
(0.464524 -0.0567423 -4.63007e-17)
(0.452245 -0.0579152 -4.60356e-17)
(0.43645 -0.0574279 -4.39047e-17)
(0.42231 -0.0560678 -4.29965e-17)
(0.409522 -0.0552124 -4.18698e-17)
(0.396616 -0.0543685 -4.44667e-17)
(0.384402 -0.0533874 -4.43622e-17)
(0.371323 -0.0524375 -4.38526e-17)
(0.358848 -0.051673 -4.40006e-17)
(0.345964 -0.0505663 -4.54123e-17)
(0.333901 -0.0493618 -4.32579e-17)
(0.322818 -0.0482536 -4.53398e-17)
(0.312445 -0.0471827 -4.48398e-17)
(0.302537 -0.0461303 -4.58919e-17)
(0.292736 -0.045012 -4.44386e-17)
(0.283266 -0.0439201 -4.54141e-17)
(0.273851 -0.0428719 -4.52838e-17)
(0.264512 -0.0416827 -4.37402e-17)
(0.255091 -0.0403256 -4.44852e-17)
(0.245472 -0.038874 -4.50776e-17)
(0.236056 -0.0374782 -4.76871e-17)
(0.226377 -0.0362223 -4.94842e-17)
(0.216725 -0.0349617 -5.29527e-17)
(0.207305 -0.0335409 -4.95134e-17)
(0.198154 -0.0320415 -5.21918e-17)
(0.189295 -0.0304997 -4.77859e-17)
(0.18136 -0.0292944 -5.16091e-17)
(0.173599 -0.0281937 -4.85313e-17)
(0.16621 -0.0270365 -4.81594e-17)
(0.158424 -0.0260747 -4.71221e-17)
(0.151518 -0.0246697 -4.41489e-17)
(0.144871 -0.022609 -4.50568e-17)
(0.136854 -0.0214709 -4.65266e-17)
(0.128872 -0.0204248 -4.62771e-17)
(0.120494 -0.0189816 -4.37981e-17)
(0.113271 -0.0174849 -4.56229e-17)
(0.104891 -0.0157377 -4.392e-17)
(0.0977752 -0.0142878 -4.58485e-17)
(0.0895749 -0.0128801 -4.48676e-17)
(0.0833816 -0.0116135 -4.6465e-17)
(0.0758697 -0.0102872 -4.5751e-17)
(0.0713757 -0.00925241 -4.70921e-17)
(0.0647161 -0.0087227 -4.48805e-17)
(0.0612114 -0.00899511 -4.73617e-17)
(0.0554875 -0.00907147 -4.50876e-17)
(0.0543129 -0.00920878 -4.66391e-17)
(0.0501929 -0.00912097 -4.46754e-17)
(0.0511676 -0.00974324 -4.64392e-17)
(0.0479586 -0.0104202 -4.56054e-17)
(0.0509922 -0.0114628 -4.51573e-17)
(0.048612 -0.0127315 -4.52291e-17)
(0.0542431 -0.0138994 -4.57792e-17)
(0.0522301 -0.0158387 -4.55956e-17)
(0.0604641 -0.0173506 -4.50535e-17)
(0.0581523 -0.0197662 -4.45778e-17)
(0.069723 -0.0217201 -4.52426e-17)
(0.0654845 -0.0241613 -4.43908e-17)
(0.0813117 -0.0273602 -4.51657e-17)
(0.0714299 -0.0319106 -4.36351e-17)
(0.0897116 -0.0373719 -4.40816e-17)
(0.0696005 -0.0453975 -4.33154e-17)
(0.0810575 -0.0235204 -4.55957e-17)
(0.112648 -0.0114285 -3.0425e-17)
(0.155426 0.00160066 -5.33854e-17)
(0.223842 0.0152196 -1.36355e-17)
(0.299013 0.0264523 -5.17045e-17)
(0.381952 0.0312574 -6.58935e-18)
(0.456035 0.0277316 -4.21116e-17)
(0.522787 0.0229554 -4.65485e-18)
(0.56458 0.0190714 -4.14932e-17)
(0.616385 0.0146231 -2.13553e-18)
(0.679566 0.0105296 -3.9782e-17)
(0.735922 0.00979091 -1.07091e-19)
(0.766546 0.00735879 -2.82729e-17)
(0.782554 0.00766763 1.67799e-17)
(0.791985 0.0058361 -7.02767e-18)
(0.801798 0.00772003 2.16425e-17)
(0.810347 0.00711218 5.43436e-17)
(0.819229 0.0104616 1.85539e-17)
(0.825672 0.0109615 1.83281e-16)
(0.831533 0.0149738 -7.40473e-17)
(0.834596 0.0153769 1.94484e-16)
(0.836413 0.0194233 -6.35332e-17)
(0.835509 0.0192023 -2.99645e-17)
(0.835322 0.0227828 -1.20519e-17)
(0.834952 0.0217885 -2.00595e-17)
(0.840121 0.0248822 2.9859e-16)
(0.841301 0.0229962 -4.03276e-16)
(0.842039 0.0248746 -1.0407e-16)
(0.838672 0.0222118 -3.10358e-16)
(0.839847 0.0221904 3.46128e-17)
(0.839989 0.0206241 7.7854e-17)
(0.844051 0.0190342 2.83492e-18)
(0.844052 0.0190281 -5.09706e-18)
(0.839977 0.0206158 6.71346e-17)
(0.839836 0.0221834 2.91756e-17)
(0.838647 0.0222046 -2.38784e-16)
(0.842014 0.0248644 1.77413e-18)
(0.841306 0.022989 -3.85957e-16)
(0.840155 0.0248772 2.76646e-16)
(0.834972 0.0217841 -2.57019e-17)
(0.835247 0.0227769 -5.33965e-17)
(0.835389 0.0192025 -6.6355e-17)
(0.836275 0.0194259 -4.03511e-17)
(0.83449 0.0153934 1.77484e-16)
(0.8315 0.0150102 -2.96053e-17)
(0.825717 0.0110252 1.64439e-16)
(0.819367 0.0105714 2.70973e-17)
(0.81061 0.00728246 5.94961e-17)
(0.802235 0.00796518 2.88235e-17)
(0.792792 0.00615545 -5.75976e-18)
(0.784838 0.0080123 1.50835e-17)
(0.775317 0.0076556 -2.00917e-17)
(0.762607 0.00981379 5.1116e-18)
(0.736507 0.0103745 -3.3929e-17)
(0.701346 0.0140398 -3.4324e-18)
(0.663456 0.0167837 -3.94652e-17)
(0.638239 0.0193867 -4.89436e-18)
(0.613194 0.0208269 -3.91595e-17)
(0.59295 0.0225761 -6.4686e-18)
(0.578611 0.0199617 -3.64776e-17)
(0.565515 0.017168 -7.98838e-18)
(0.5502 0.0112341 -3.25871e-17)
(0.540371 0.00602193 -1.12405e-17)
(0.52893 0.00074019 -2.28385e-17)
(0.526213 -0.0056098 -1.8428e-17)
(0.517844 -0.00883447 -2.21045e-17)
(0.507669 -0.0107051 -1.81234e-17)
(0.504451 -0.0124778 -2.19826e-17)
(0.492841 -0.0122742 -1.81415e-17)
(0.490657 -0.013366 -2.1728e-17)
(0.47976 -0.0122911 -1.83208e-17)
(0.477337 -0.0128161 -2.14437e-17)
(0.46783 -0.0113327 -1.84639e-17)
(0.465292 -0.0115282 -2.11716e-17)
(0.456976 -0.0101183 -1.85578e-17)
(0.454028 -0.0100467 -2.09523e-17)
(0.446592 -0.00881502 -1.8616e-17)
(0.443007 -0.00850212 -2.07332e-17)
(0.4362 -0.00723047 -1.8656e-17)
(0.432495 -0.00661349 -2.05602e-17)
(0.426556 -0.00546905 -1.86886e-17)
(0.422479 -0.00478259 -2.03794e-17)
(0.417096 -0.00350067 -1.87353e-17)
(0.413214 -0.00277573 -2.01661e-17)
(0.408085 -0.00166951 -1.87473e-17)
(0.403492 -0.000597996 -1.99482e-17)
(0.39952 0.00129678 -1.86708e-17)
(0.397163 0.00216393 -1.98001e-17)
(0.393753 0.00299127 -1.8627e-17)
(0.390278 0.00356287 -1.95344e-17)
(0.385825 0.00455108 -1.8522e-17)
(0.382197 0.0060278 -1.93716e-17)
(0.379604 0.00739732 -1.83015e-17)
(0.376672 0.00830735 -1.88445e-17)
(0.373692 0.00999592 -1.81887e-17)
(0.372146 0.0115176 -1.86869e-17)
(0.370563 0.0127919 -1.81194e-17)
(0.369087 0.0141222 -1.86901e-17)
(0.368132 0.0157353 -1.79125e-17)
(0.367804 0.0169664 -1.84987e-17)
(0.36722 0.0182603 -1.81306e-17)
(0.366978 0.0196842 -1.8393e-17)
(0.367269 0.0210678 -1.81661e-17)
(0.367419 0.0224191 -1.84873e-17)
(0.368258 0.0240057 -1.82524e-17)
(0.369569 0.0253775 -1.84705e-17)
(0.370851 0.0267922 -1.77016e-17)
(0.372522 0.0283192 -1.8342e-17)
(0.374573 0.0297857 -1.79736e-17)
(0.376689 0.0313716 -1.82981e-17)
(0.379651 0.0329864 -1.84477e-17)
(0.382558 0.0343822 -1.87636e-17)
(0.385516 0.0359248 -1.85209e-17)
(0.388769 0.0375312 -1.8804e-17)
(0.392438 0.0393034 -1.83915e-17)
(0.396974 0.0411566 -1.96021e-17)
(0.401947 0.0428224 -1.87766e-17)
(0.406928 0.0445981 -1.95778e-17)
(0.412656 0.0464206 -1.80418e-17)
(0.4184 0.0482069 -1.92719e-17)
(0.424353 0.0501837 -1.92796e-17)
(0.430582 0.0523303 -1.92131e-17)
(0.438197 0.0547566 -1.93103e-17)
(0.446481 0.0568551 -1.80193e-17)
(0.454844 0.0590424 -1.82599e-17)
(0.463771 0.0612224 -1.94866e-17)
(0.47292 0.0634265 -1.94566e-17)
(0.483036 0.0656718 -1.96183e-17)
(0.493244 0.0676908 -2.04771e-17)
(0.503825 0.0698485 -1.9008e-17)
(0.514627 0.0719026 -2.17123e-17)
(0.526329 0.0741239 -2.18654e-17)
(0.538215 0.0759972 -2.21695e-17)
(0.550224 0.0779102 -2.23222e-17)
(0.562189 0.0801998 -2.10074e-17)
(0.580708 0.0839868 -2.12606e-17)
(0.60032 0.0842759 -2.20837e-17)
(0.609881 0.0819302 -2.12031e-17)
(0.617516 0.0827388 -2.22291e-17)
(0.632691 0.0857101 -2.16649e-17)
(0.649492 0.0864518 -2.33753e-17)
(0.666517 0.0868645 -2.39997e-17)
(0.683418 0.0864179 -2.17299e-17)
(0.70044 0.0857656 -2.44336e-17)
(0.717067 0.0845107 -2.2168e-17)
(0.736231 0.0837969 -2.40908e-17)
(0.75411 0.0809235 -2.33863e-17)
(0.77223 0.0778982 -2.41403e-17)
(0.788829 0.073737 -2.28633e-17)
(0.807547 0.0703343 -2.49245e-17)
(0.823149 0.0639324 -2.25335e-17)
(0.839655 0.0584127 -2.54571e-17)