/*--------------------------------*- C++ -*----------------------------------*\
| =========                 |                                                 |
| \\      /  F ield         | OpenFOAM: The Open Source CFD Toolbox           |
|  \\    /   O peration     | Version:  v2006                                 |
|   \\  /    A nd           | Website:  www.openfoam.com                      |
|    \\/     M anipulation  |                                                 |
\*---------------------------------------------------------------------------*/
FoamFile
{
    version     2.0;
    format      ascii;
    class       volScalarField;
    location    "1000";
    object      alphat;
}
// * * * * * * * * * * * * * * * * * * * * * * * * * * * * * * * * * * * * * //

dimensions      [1 -1 -1 0 0 0 0];


internalField   nonuniform List<scalar> 
65536
(
1.51827e-06
1.53295e-06
1.53398e-06
1.51912e-06
1.6504e-06
1.85799e-06
2.01197e-06
2.10953e-06
2.18315e-06
2.24404e-06
2.283e-06
2.29324e-06
2.28015e-06
2.24257e-06
2.18222e-06
2.09792e-06
1.99765e-06
1.88306e-06
1.75916e-06
1.62921e-06
1.49706e-06
1.36521e-06
1.23623e-06
1.11574e-06
1.00711e-06
9.15905e-07
8.42794e-07
7.92343e-07
7.58139e-07
7.38431e-07
7.35888e-07
7.40118e-07
7.55836e-07
7.63735e-07
6.89557e-07
3.82463e-07
4.22379e-07
4.75074e-07
6.69708e-07
2.15478e-06
3.38814e-06
4.55636e-06
5.59813e-06
6.5231e-06
7.38626e-06
8.17549e-06
8.86834e-06
9.47701e-06
1.00341e-05
1.05366e-05
1.09897e-05
1.13974e-05
1.17643e-05
1.21043e-05
1.24152e-05
1.2693e-05
1.29503e-05
1.31848e-05
1.33851e-05
1.35728e-05
1.37465e-05
1.38909e-05
1.40346e-05
1.41551e-05
1.42599e-05
1.43548e-05
1.44297e-05
1.44823e-05
1.45223e-05
1.45435e-05
1.45552e-05
1.45622e-05
1.4557e-05
1.45456e-05
1.4488e-05
1.44408e-05
1.43737e-05
1.43017e-05
1.42086e-05
1.41062e-05
1.39966e-05
1.38973e-05
1.37609e-05
1.36061e-05
1.34822e-05
1.33359e-05
1.31259e-05
1.29281e-05
1.27568e-05
1.25469e-05
1.23309e-05
1.21105e-05
1.1853e-05
1.16189e-05
1.13774e-05
1.10757e-05
1.08035e-05
1.05264e-05
1.02317e-05
9.94484e-06
9.61791e-06
9.27395e-06
8.98039e-06
8.68299e-06
8.34625e-06
8.0022e-06
7.67553e-06
7.34509e-06
6.97796e-06
6.57671e-06
6.17529e-06
5.80243e-06
5.4507e-06
5.08252e-06
4.69377e-06
4.31078e-06
3.90963e-06
3.46826e-06
3.00177e-06
2.48585e-06
1.87476e-06
1.17683e-06
5.90835e-07
3.79428e-07
2.31135e-07
7.00975e-08
2.71911e-08
4.17437e-09
3.49853e-09
2.5021e-08
3.40684e-08
1.61488e-07
5.8216e-07
7.95485e-07
9.9455e-07
1.58806e-06
2.26496e-06
2.89275e-06
3.43708e-06
3.89449e-06
4.31136e-06
4.70827e-06
5.0621e-06
5.42102e-06
5.81216e-06
6.19788e-06
6.55358e-06
6.93564e-06
7.34261e-06
7.68425e-06
8.00347e-06
8.35909e-06
8.6818e-06
8.98542e-06
9.31803e-06
9.67337e-06
9.97804e-06
1.02393e-05
1.05413e-05
1.08531e-05
1.10917e-05
1.13406e-05
1.16102e-05
1.1847e-05
1.20714e-05
1.2297e-05
1.25232e-05
1.27401e-05
1.2917e-05
1.30939e-05
1.32703e-05
1.34522e-05
1.36118e-05
1.37344e-05
1.38784e-05
1.40021e-05
1.41303e-05
1.42135e-05
1.4317e-05
1.43888e-05
1.44538e-05
1.45035e-05
1.45397e-05
1.45717e-05
1.45755e-05
1.45801e-05
1.45561e-05
1.45248e-05
1.44754e-05
1.44102e-05
1.43342e-05
1.42504e-05
1.41448e-05
1.40359e-05
1.38995e-05
1.37461e-05
1.35811e-05
1.33892e-05
1.31823e-05
1.2956e-05
1.26986e-05
1.24229e-05
1.21205e-05
1.17804e-05
1.14123e-05
1.10066e-05
1.05537e-05
1.00482e-05
9.48809e-06
8.87887e-06
8.19013e-06
7.40474e-06
6.54143e-06
5.61253e-06
4.5652e-06
3.39128e-06
2.15506e-06
6.6932e-07
4.74234e-07
4.23165e-07
3.83735e-07
6.92111e-07
7.678e-07
7.61977e-07
7.48374e-07
7.46086e-07
7.49852e-07
7.70006e-07
8.03907e-07
8.53819e-07
9.26141e-07
1.01644e-06
1.12411e-06
1.24363e-06
1.3717e-06
1.50265e-06
1.63418e-06
1.76361e-06
1.88723e-06
2.00152e-06
2.1017e-06
2.18599e-06
2.24655e-06
2.28432e-06
2.29774e-06
2.28784e-06
2.24943e-06
2.1889e-06
2.11539e-06
2.01845e-06
1.86539e-06
1.65799e-06
1.52006e-06
1.53451e-06
1.53341e-06
1.51889e-06
7.92156e-06
7.88748e-06
7.80807e-06
7.68806e-06
7.5151e-06
7.29815e-06
7.03785e-06
6.75376e-06
6.51402e-06
6.28298e-06
6.0302e-06
5.75345e-06
5.45547e-06
5.13979e-06
4.81246e-06
4.47165e-06
4.138e-06
3.81287e-06
3.50506e-06
3.2144e-06
2.94157e-06
2.68855e-06
2.45949e-06
2.25899e-06
2.09219e-06
1.96403e-06
1.87461e-06
1.83114e-06
1.8219e-06
1.86279e-06
1.97088e-06
2.11861e-06
2.37633e-06
2.73088e-06
3.27036e-06
4.02383e-06
4.7381e-06
5.38302e-06
5.75507e-06
6.35255e-06
7.41008e-06
8.60799e-06
9.54387e-06
1.00961e-05
1.04878e-05
1.08233e-05
1.11003e-05
1.1299e-05
1.14297e-05
1.15568e-05
1.16512e-05
1.17432e-05
1.1805e-05
1.1855e-05
1.18941e-05
1.19225e-05
1.19257e-05
1.19237e-05
1.19025e-05
1.1874e-05
1.18477e-05
1.1817e-05
1.17784e-05
1.17413e-05
1.16797e-05
1.16192e-05
1.15369e-05
1.14184e-05
1.13108e-05
1.11805e-05
1.10789e-05
1.1002e-05
1.08981e-05
1.07574e-05
1.05759e-05
1.04416e-05
1.02756e-05
1.01271e-05
9.92776e-06
9.75399e-06
9.59006e-06
9.44196e-06
9.1918e-06
9.0198e-06
8.92144e-06
8.6717e-06
8.35344e-06
8.19426e-06
8.0325e-06
7.78074e-06
7.57194e-06
7.3013e-06
7.04795e-06
6.86678e-06
6.5717e-06
6.23808e-06
6.02062e-06
5.74806e-06
5.51676e-06
5.21741e-06
4.82829e-06
4.56911e-06
4.39889e-06
4.08292e-06
3.73353e-06
3.45213e-06
3.20933e-06
2.88137e-06
2.47102e-06
2.08551e-06
1.83377e-06
1.64179e-06
1.36552e-06
1.03838e-06
7.93565e-07
5.81199e-07
3.46228e-07
1.8475e-07
1.05601e-07
5.14546e-08
2.14954e-08
1.76958e-08
2.84415e-08
5.62043e-08
6.70057e-08
6.4772e-08
9.01574e-08
5.9176e-08
3.70806e-08
6.2128e-08
3.90409e-08
5.15484e-08
4.03636e-08
2.87354e-08
2.32573e-08
2.53715e-08
4.87054e-08
7.98248e-08
1.83356e-07
3.72761e-07
5.45647e-07
8.52995e-07
1.15639e-06
1.36945e-06
1.60207e-06
1.9324e-06
2.21553e-06
2.43824e-06
2.83103e-06
3.26035e-06
3.50199e-06
3.78563e-06
4.12421e-06
4.36712e-06
4.57498e-06
4.94148e-06
5.32973e-06
5.54434e-06
5.72791e-06
6.11467e-06
6.39668e-06
6.53443e-06
6.79931e-06
7.07906e-06
7.26282e-06
7.47784e-06
7.70765e-06
8.00635e-06
8.21125e-06
8.36729e-06
8.5392e-06
8.78103e-06
9.03909e-06
9.17107e-06
9.36742e-06
9.54575e-06
9.79402e-06
9.95334e-06
1.01311e-05
1.03118e-05
1.04557e-05
1.06193e-05
1.0736e-05
1.08897e-05
1.09872e-05
1.11277e-05
1.12233e-05
1.13465e-05
1.14301e-05
1.1507e-05
1.15706e-05
1.16399e-05
1.16937e-05
1.17668e-05
1.18122e-05
1.18529e-05
1.18871e-05
1.18993e-05
1.19141e-05
1.19092e-05
1.18994e-05
1.18846e-05
1.18533e-05
1.18068e-05
1.17571e-05
1.16728e-05
1.15764e-05
1.14475e-05
1.13147e-05
1.11184e-05
1.08457e-05
1.051e-05
1.0111e-05
9.55268e-06
8.60961e-06
7.40562e-06
6.35503e-06
5.75661e-06
5.37993e-06
4.74027e-06
4.02798e-06
3.27317e-06
2.73128e-06
2.37615e-06
2.11991e-06
1.97274e-06
1.86645e-06
1.82578e-06
1.83474e-06
1.87794e-06
1.96703e-06
2.09483e-06
2.26126e-06
2.4614e-06
2.69019e-06
2.94263e-06
3.21487e-06
3.50501e-06
3.81267e-06
4.13744e-06
4.47085e-06
4.81151e-06
5.13901e-06
5.45478e-06
5.75303e-06
6.03009e-06
6.28337e-06
6.51482e-06
6.75412e-06
7.03751e-06
7.29795e-06
7.51478e-06
7.68797e-06
7.80798e-06
7.88705e-06
7.92133e-06
1.62358e-05
1.61771e-05
1.60437e-05
1.58309e-05
1.5532e-05
1.5153e-05
1.46885e-05
1.41715e-05
1.36893e-05
1.3205e-05
1.26731e-05
1.20901e-05
1.14639e-05
1.08063e-05
1.01248e-05
9.41753e-06
8.72285e-06
8.04752e-06
7.40787e-06
6.80358e-06
6.23717e-06
5.72248e-06
5.26461e-06
4.87243e-06
4.5571e-06
4.32934e-06
4.18775e-06
4.14422e-06
4.18336e-06
4.35331e-06
4.65174e-06
5.05863e-06
5.6264e-06
6.40352e-06
7.0489e-06
7.51011e-06
8.12685e-06
8.99666e-06
9.87512e-06
1.08122e-05
1.17473e-05
1.25215e-05
1.30367e-05
1.32728e-05
1.33492e-05
1.33383e-05
1.32667e-05
1.3146e-05
1.30052e-05
1.28525e-05
1.26794e-05
1.25051e-05
1.23151e-05
1.21187e-05
1.19138e-05
1.17077e-05
1.14804e-05
1.12413e-05
1.1002e-05
1.07792e-05
1.05683e-05
1.03677e-05
1.0164e-05
9.94258e-06
9.7073e-06
9.46157e-06
9.18308e-06
8.88383e-06
8.62551e-06
8.375e-06
8.18077e-06
7.98802e-06
7.70475e-06
7.343e-06
7.01634e-06
6.76618e-06
6.4894e-06
6.20536e-06
5.87411e-06
5.61393e-06
5.3524e-06
5.01985e-06
4.61774e-06
4.45579e-06
4.16312e-06
3.56734e-06
3.17662e-06
3.19485e-06
2.87668e-06
2.425e-06
2.13607e-06
1.76269e-06
1.56029e-06
1.36687e-06
9.40115e-07
7.10635e-07
6.11164e-07
3.71413e-07
1.91001e-07
2.98627e-08
1.43753e-08
2.20233e-08
2.04647e-08
1.1443e-09
6.04721e-10
5.22145e-10
7.62022e-10
6.51389e-11
2.74868e-11
4.86238e-12
1.26102e-09
1.63119e-09
2.63951e-09
4.38167e-09
9.06505e-09
1.11069e-08
1.90801e-08
1.96816e-08
3.1191e-08
2.0876e-08
1.86176e-08
1.08712e-08
1.47581e-08
2.11005e-08
2.60035e-08
2.24723e-08
4.81545e-08
1.27939e-08
4.01749e-09
4.38039e-08
1.46591e-08
3.26235e-08
4.13682e-08
3.63273e-08
4.58296e-08
7.8097e-08
1.04338e-07
1.32034e-07
9.29932e-08
8.83756e-08
8.67807e-08
8.42253e-08
7.21294e-08
8.45845e-08
7.44427e-08
5.66926e-08
1.02187e-07
1.11479e-07
8.24611e-08
1.13969e-07
1.08887e-07
1.406e-07
1.96203e-07
2.67123e-07
3.02501e-07
3.16293e-07
5.5872e-07
8.81017e-07
8.71085e-07
1.04747e-06
1.53362e-06
1.62419e-06
1.67005e-06
2.0722e-06
2.27507e-06
2.47125e-06
2.58072e-06
2.93726e-06
3.37534e-06
3.58074e-06
3.77374e-06
4.01138e-06
4.46569e-06
4.7019e-06
4.93769e-06
5.20282e-06
5.55141e-06
5.91896e-06
6.18413e-06
6.53062e-06
6.80924e-06
7.12015e-06
7.37975e-06
7.67761e-06
7.93396e-06
8.21181e-06
8.45299e-06
8.72428e-06
8.97835e-06
9.21158e-06
9.42466e-06
9.63785e-06
9.84586e-06
1.00859e-05
1.03329e-05
1.05689e-05
1.08057e-05
1.1028e-05
1.12408e-05
1.14428e-05
1.16506e-05
1.18601e-05
1.2078e-05
1.22955e-05
1.25098e-05
1.27e-05
1.28836e-05
1.30444e-05
1.3184e-05
1.32961e-05
1.33607e-05
1.33679e-05
1.32851e-05
1.30485e-05
1.2528e-05
1.17432e-05
1.08193e-05
9.88181e-06
8.99007e-06
8.12495e-06
7.51481e-06
7.05322e-06
6.40527e-06
5.62607e-06
5.05942e-06
4.65583e-06
4.3606e-06
4.19208e-06
4.15202e-06
4.19491e-06
4.33569e-06
4.56257e-06
4.8771e-06
5.26846e-06
5.72588e-06
6.23967e-06
6.80503e-06
7.40803e-06
8.0473e-06
8.72197e-06
9.41618e-06
1.01232e-05
1.08049e-05
1.14628e-05
1.20894e-05
1.2673e-05
1.32059e-05
1.36908e-05
1.41725e-05
1.46887e-05
1.51535e-05
1.55323e-05
1.58312e-05
1.60441e-05
1.61769e-05
1.62355e-05
2.5781e-05
2.56986e-05
2.55122e-05
2.52044e-05
2.4768e-05
2.42123e-05
2.35365e-05
2.27798e-05
2.20215e-05
2.1247e-05
2.04056e-05
1.94831e-05
1.84886e-05
1.74472e-05
1.63678e-05
1.52491e-05
1.41447e-05
1.30638e-05
1.20318e-05
1.10507e-05
1.01315e-05
9.30077e-06
8.56533e-06
7.94353e-06
7.45779e-06
7.12689e-06
6.95023e-06
6.95159e-06
7.09721e-06
7.45549e-06
7.99943e-06
8.72123e-06
9.69654e-06
1.02573e-05
1.05296e-05
1.08309e-05
1.13864e-05
1.21456e-05
1.30216e-05
1.40339e-05
1.47866e-05
1.50568e-05
1.50007e-05
1.4786e-05
1.44693e-05
1.40729e-05
1.36399e-05
1.31843e-05
1.27336e-05
1.22835e-05
1.18334e-05
1.13841e-05
1.09421e-05
1.05062e-05
1.00629e-05
9.62437e-06
9.17208e-06
8.68995e-06
8.23579e-06
7.83497e-06
7.43579e-06
7.07434e-06
6.70801e-06
6.28403e-06
5.86203e-06
5.41439e-06
4.8998e-06
4.42569e-06
4.04123e-06
3.72161e-06
3.49403e-06
3.16753e-06
2.67925e-06
2.18357e-06
1.8884e-06
1.63258e-06
1.23755e-06
8.01092e-07
5.42667e-07
5.36656e-07
3.6766e-07
8.89937e-08
2.57208e-08
1.29782e-07
5.92705e-08
2.00073e-09
7.2194e-09
9.77048e-08
2.2834e-08
1.45152e-08
6.39069e-09
4.92975e-09
3.23889e-14
1.27299e-08
2.316e-10
2.78722e-10
1.31629e-09
1.89646e-09
2.82758e-11
2.85949e-11
3.20722e-10
3.44764e-11
4.30149e-10
6.06313e-10
5.03448e-09
1.56266e-09
2.25706e-09
1.04565e-08
5.13642e-09
5.52125e-09
4.9848e-09
8.51128e-10
2.65315e-09
5.55791e-09
4.69234e-09
4.01128e-09
5.07324e-09
5.02943e-09
5.84995e-09
6.40279e-09
2.97658e-09
1.76718e-09
3.36636e-09
1.1811e-09
3.52347e-10
1.4626e-10
2.78296e-09
5.75167e-10
8.79679e-11
6.28498e-09
2.2231e-09
6.58811e-09
2.59561e-08
4.15593e-08
6.34778e-08
8.00894e-08
1.28346e-07
1.27053e-07
1.10535e-07
1.13702e-07
1.70107e-07
1.92751e-07
2.4734e-07
2.54099e-07
2.55769e-07
2.44347e-07
2.71166e-07
2.88501e-07
2.76008e-07
2.80442e-07
2.43182e-07
2.29325e-07
2.87055e-07
2.24143e-07
2.23576e-07
2.43446e-07
1.87323e-07
1.29528e-07
1.46631e-07
1.02386e-07
8.33564e-08
1.2474e-07
4.33584e-08
6.48356e-08
4.15376e-08
5.5615e-08
2.3315e-08
1.70496e-08
1.31061e-07
1.42427e-07
7.53951e-08
3.05039e-08
1.74005e-07
3.6167e-07
3.65249e-07
3.82661e-07
4.59589e-07
8.03292e-07
1.00254e-06
1.38093e-06
1.64937e-06
1.94729e-06
2.22501e-06
2.58367e-06
2.95098e-06
3.32593e-06
3.66808e-06
4.0509e-06
4.50802e-06
4.95261e-06
5.35726e-06
5.75797e-06
6.12919e-06
6.54108e-06
6.99748e-06
7.4206e-06
7.86469e-06
8.3059e-06
8.71146e-06
9.12314e-06
9.54004e-06
9.95946e-06
1.04188e-05
1.08969e-05
1.13737e-05
1.18472e-05
1.23215e-05
1.27922e-05
1.32449e-05
1.36809e-05
1.40898e-05
1.44764e-05
1.47878e-05
1.50112e-05
1.50734e-05
1.47899e-05
1.4046e-05
1.30343e-05
1.2137e-05
1.13799e-05
1.08371e-05
1.0538e-05
1.02597e-05
9.69648e-06
8.72133e-06
8.00567e-06
7.46692e-06
7.11211e-06
6.96623e-06
6.96339e-06
7.13846e-06
7.46757e-06
7.95177e-06
8.57189e-06
9.3063e-06
1.01356e-05
1.10535e-05
1.20325e-05
1.30637e-05
1.41437e-05
1.52475e-05
1.63658e-05
1.74456e-05
1.84873e-05
1.94826e-05
2.04058e-05
2.12487e-05
2.20239e-05
2.27815e-05
2.35374e-05
2.42134e-05
2.47689e-05
2.52052e-05
2.55132e-05
2.5699e-05
2.57806e-05
3.62451e-05
3.61363e-05
3.58869e-05
3.54785e-05
3.49098e-05
3.41872e-05
3.33077e-05
3.2309e-05
3.12714e-05
3.01844e-05
2.9001e-05
2.7706e-05
2.63117e-05
2.48521e-05
2.33416e-05
2.17805e-05
2.02364e-05
1.87208e-05
1.72659e-05
1.58774e-05
1.45753e-05
1.33872e-05
1.23401e-05
1.14676e-05
1.0807e-05
1.03841e-05
1.0198e-05
1.02642e-05
1.05562e-05
1.11673e-05
1.20177e-05
1.28381e-05
1.33256e-05
1.34373e-05
1.33796e-05
1.35987e-05
1.42688e-05
1.50932e-05
1.58087e-05
1.63754e-05
1.65666e-05
1.62814e-05
1.56928e-05
1.49783e-05
1.41926e-05
1.33696e-05
1.25487e-05
1.17327e-05
1.09404e-05
1.0164e-05
9.39751e-06
8.6292e-06
7.89051e-06
7.16531e-06
6.42722e-06
5.7041e-06
4.97547e-06
4.21932e-06
3.59153e-06
3.1634e-06
2.7289e-06
2.35865e-06
1.96501e-06
1.56613e-06
1.20457e-06
8.78455e-07
3.60751e-07
1.64989e-07
6.13907e-08
3.4883e-08
4.05911e-08
1.83729e-08
5.91469e-10
4.14166e-10
5.40843e-11
3.82388e-11
1.23686e-10
2.67877e-12
2.54454e-11
4.70777e-10
2.04629e-13
4.73272e-12
5.02179e-11
1.37235e-12
5.31161e-11
2.72532e-10
7.06892e-11
7.55831e-12
1.57811e-10
1.68453e-12
2.68349e-12
4.43229e-10
2.84846e-10
6.03166e-11
1.10387e-11
9.89677e-11
6.17071e-11
4.13276e-10
3.24288e-10
1.48924e-09
2.71592e-10
1.50486e-09
3.89336e-09
3.27701e-09
8.62191e-09
1.34292e-08
9.59018e-09
1.20384e-08
3.20025e-08
2.13237e-08
8.34868e-09
1.02577e-08
1.55387e-08
1.20919e-08
1.50945e-08
1.30408e-08
1.79398e-08
1.89514e-08
1.39213e-08
1.29976e-08
1.74691e-08
9.31635e-09
1.59195e-08
5.20432e-09
1.09304e-09
9.58105e-12
2.08296e-09
1.79841e-10
9.99462e-11
2.18478e-09
4.43726e-09
2.56017e-08
7.76608e-08
1.24287e-07
1.45335e-07
1.47368e-07
2.10501e-07
2.4845e-07
2.33996e-07
2.77226e-07
2.83785e-07
2.97942e-07
3.25481e-07
3.50713e-07
2.84777e-07
3.1681e-07
2.30802e-07
2.30084e-07
2.21235e-07
2.11131e-07
1.84165e-07
2.04583e-07
1.98611e-07
2.10193e-07
9.44929e-08
6.89307e-08
9.76018e-08
1.07381e-07
6.04335e-08
6.92135e-08
7.37196e-08
8.38562e-08
7.83256e-08
2.45289e-08
2.45245e-08
6.06836e-08
5.07248e-08
2.01758e-08
3.25818e-08
2.52552e-08
2.39368e-08
3.68415e-08
1.89262e-08
7.66008e-09
1.15208e-08
1.31852e-08
8.30761e-09
2.0855e-08
6.62107e-09
5.49392e-09
1.06765e-08
6.91982e-09
1.16758e-08
2.25107e-08
3.22713e-08
7.55519e-08
1.33272e-07
1.68534e-07
4.09878e-07
6.94551e-07
1.0155e-06
1.35126e-06
1.53468e-06
1.83546e-06
2.32512e-06
2.78125e-06
3.32969e-06
3.92662e-06
4.4847e-06
5.07575e-06
5.682e-06
6.30667e-06
7.03628e-06
7.82388e-06
8.60777e-06
9.40754e-06
1.02153e-05
1.10266e-05
1.18237e-05
1.26079e-05
1.33817e-05
1.41799e-05
1.49552e-05
1.5686e-05
1.63013e-05
1.65806e-05
1.63951e-05
1.58292e-05
1.50857e-05
1.42568e-05
1.36026e-05
1.33895e-05
1.34407e-05
1.3326e-05
1.28399e-05
1.20256e-05
1.1183e-05
1.05779e-05
1.02862e-05
1.0218e-05
1.04025e-05
1.08225e-05
1.14805e-05
1.23504e-05
1.33956e-05
1.45814e-05
1.58812e-05
1.72671e-05
1.87208e-05
2.02351e-05
2.17784e-05
2.33391e-05
2.48502e-05
2.631e-05
2.77053e-05
2.90014e-05
3.01865e-05
3.12745e-05
3.23116e-05
3.33095e-05
3.41891e-05
3.49114e-05
3.548e-05
3.58884e-05
3.61372e-05
3.62451e-05
4.74098e-05
4.72735e-05
4.69661e-05
4.64678e-05
4.57759e-05
4.48933e-05
4.38123e-05
4.25692e-05
4.12416e-05
3.98261e-05
3.82817e-05
3.65913e-05
3.47713e-05
3.28687e-05
3.0903e-05
2.88772e-05
2.68689e-05
2.4892e-05
2.29849e-05
2.11605e-05
1.94509e-05
1.78919e-05
1.65242e-05
1.53943e-05
1.456e-05
1.40541e-05
1.38745e-05
1.40449e-05
1.45392e-05
1.54615e-05
1.6225e-05
1.65778e-05
1.65617e-05
1.62959e-05
1.60247e-05
1.61455e-05
1.67217e-05
1.73976e-05
1.78865e-05
1.79868e-05
1.74398e-05
1.64466e-05
1.52958e-05
1.4055e-05
1.2761e-05
1.1466e-05
1.01938e-05
8.94432e-06
7.75177e-06
6.60926e-06
5.54366e-06
4.54338e-06
3.71453e-06
2.98909e-06
2.37818e-06
1.78793e-06
1.24684e-06
6.43465e-07
3.6895e-07
2.80582e-07
1.50066e-07
6.82481e-08
8.46787e-08
3.03716e-08
4.13264e-08
2.59458e-08
1.10464e-08
6.07895e-09
8.16001e-09
1.23495e-09
7.61074e-09
5.49384e-09
3.93242e-09
8.62606e-09
3.69496e-09
1.23161e-09
6.5058e-09
1.22183e-09
1.72258e-09
2.35061e-09
7.30676e-10
1.61768e-09
4.50427e-09
4.98971e-10
3.30189e-09
2.34306e-09
1.93132e-10
2.26647e-11
1.23125e-09
2.18594e-10
2.3424e-10
4.22566e-10
6.94433e-10
2.62262e-10
7.54229e-10
1.50076e-10
9.4009e-11
5.63931e-11
7.69937e-10
4.62119e-10
1.44451e-09
6.13436e-10
5.80482e-10
2.30003e-09
1.07965e-08
1.04339e-08
6.02084e-09
9.05115e-09
2.851e-08
1.3419e-08
1.33324e-08
1.93478e-08
2.53471e-08
2.57193e-08
1.95661e-08
4.05047e-08
3.49143e-08
3.86606e-08
3.63431e-08
2.19639e-08
2.31717e-08
8.00231e-09
1.16204e-08
1.0454e-08
6.48857e-09
2.04354e-12
1.07336e-09
1.51941e-13
6.39071e-17
2.83151e-10
3.2733e-09
4.94435e-08
8.69408e-08
1.047e-07
1.52878e-07
1.932e-07
2.60645e-07
3.43986e-07
3.41282e-07
3.07841e-07
3.21688e-07
3.34618e-07
3.40065e-07
2.73259e-07
2.81214e-07
2.55889e-07
1.94254e-07
1.09923e-07
1.11123e-07
1.30417e-07
1.01827e-07
1.12153e-07
1.2061e-07
5.79253e-08
2.66108e-08
3.82318e-08
3.45146e-08
2.36408e-08
1.74122e-08
2.38445e-08
1.47994e-08
7.60261e-09
5.49164e-09
5.48932e-09
5.92027e-09
5.25475e-09
1.64262e-09
2.85895e-09
9.50989e-09
5.20344e-09
1.20095e-09
3.95857e-09
2.57171e-09
1.9287e-09
7.28002e-09
2.95508e-09
1.14634e-09
6.16229e-09
1.932e-09
2.62112e-09
6.88798e-09
2.78388e-09
2.17515e-09
6.20148e-09
1.03996e-09
4.32891e-09
7.31949e-09
3.94008e-09
1.18588e-08
1.0007e-08
7.51954e-09
2.62083e-08
1.74978e-08
2.24619e-08
7.53162e-08
1.43868e-07
2.91898e-07
5.8757e-07
8.29739e-07
1.29362e-06
1.73762e-06
2.16101e-06
2.79088e-06
3.61691e-06
4.50916e-06
5.54723e-06
6.67843e-06
7.88161e-06
9.09194e-06
1.02989e-05
1.1497e-05
1.27399e-05
1.40048e-05
1.52573e-05
1.64541e-05
1.74594e-05
1.80123e-05
1.79132e-05
1.73929e-05
1.67051e-05
1.6146e-05
1.60366e-05
1.63024e-05
1.65643e-05
1.6582e-05
1.6236e-05
1.54818e-05
1.45679e-05
1.40745e-05
1.3902e-05
1.40794e-05
1.45811e-05
1.54116e-05
1.65377e-05
1.79028e-05
1.94588e-05
2.11655e-05
2.29866e-05
2.48919e-05
2.68673e-05
2.88747e-05
3.09001e-05
3.28665e-05
3.47694e-05
3.65906e-05
3.82822e-05
3.98287e-05
4.12453e-05
4.25727e-05
4.38151e-05
4.48964e-05
4.57785e-05
4.64703e-05
4.69683e-05
4.72751e-05
4.74099e-05
5.91662e-05
5.90059e-05
5.86449e-05
5.80604e-05
5.72474e-05
5.62026e-05
5.49217e-05
5.34351e-05
5.18157e-05
5.00619e-05
4.81437e-05
4.60427e-05
4.37776e-05
4.14099e-05
3.89695e-05
3.64604e-05
3.39656e-05
3.15026e-05
2.91186e-05
2.68363e-05
2.47007e-05
2.27571e-05
2.1063e-05
1.96808e-05
1.86853e-05
1.81159e-05
1.7972e-05
1.82914e-05
1.90125e-05
1.97774e-05
2.00642e-05
1.98836e-05
1.93679e-05
1.87309e-05
1.83266e-05
1.84857e-05
1.89918e-05
1.93208e-05
1.92607e-05
1.86563e-05
1.73396e-05
1.56682e-05
1.39229e-05
1.20875e-05
1.02169e-05
8.36811e-06
6.63619e-06
5.1469e-06
3.86551e-06
2.89548e-06
2.03408e-06
1.36154e-06
8.20299e-07
5.4153e-07
3.03593e-07
1.88707e-07
7.82673e-08
4.16221e-08
3.66164e-08
4.62506e-08
2.01375e-08
2.47623e-08
2.32786e-08
1.95945e-08
1.75814e-08
4.16446e-08
1.82382e-08
4.45232e-08
2.43581e-08
1.30895e-08
1.55112e-08
1.06349e-08
1.03773e-08
2.39927e-08
1.59505e-08
1.45526e-08
1.94396e-08
7.21438e-09
7.6614e-09
8.54101e-09
3.03088e-09
3.70201e-09
3.81353e-09
1.22954e-09
3.37292e-09
1.14137e-08
2.64741e-09
1.67928e-09
1.28203e-09
1.54155e-09
7.46799e-10
1.2527e-09
7.17554e-10
9.682e-10
1.29001e-09
5.01104e-10
9.12422e-11
7.09451e-11
1.09199e-10
1.94762e-10
4.01451e-10
1.21545e-09
5.41654e-10
2.08111e-10
3.35851e-09
6.91056e-09
2.39698e-09
4.10676e-09
9.39438e-09
1.11297e-08
1.10044e-08
2.84777e-08
4.12748e-08
3.03271e-08
4.19121e-08
4.85959e-08
3.42448e-08
5.86257e-08
1.11725e-07
6.10294e-08
7.01058e-08
5.33138e-08
3.1356e-08
2.842e-08
3.32292e-08
8.25074e-10
2.80801e-09
7.06705e-14
4.40186e-14
1.837e-09
1.97723e-08
1.10765e-07
9.0701e-08
1.42965e-07
2.57856e-07
3.0451e-07
2.83797e-07
3.63551e-07
2.71138e-07
2.58778e-07
3.13309e-07
3.17038e-07
2.85366e-07
1.95824e-07
1.3306e-07
1.51647e-07
7.5837e-08
3.43695e-08
5.53694e-08
4.39891e-08
2.07361e-08
2.80075e-08
3.11563e-08
7.90888e-09
2.32677e-09
6.636e-09
6.87955e-09
1.74723e-09
1.04185e-09
2.15896e-09
1.74959e-09
1.23021e-09
1.09554e-09
7.42413e-10
1.74992e-09
3.0238e-09
4.30102e-09
6.04642e-09
3.12302e-09
2.43725e-09
3.61818e-09
9.42283e-09
5.25078e-09
2.73229e-09
5.30247e-09
4.41655e-09
4.26338e-09
1.48418e-08
1.05317e-08
7.11168e-09
1.5044e-08
4.7189e-09
1.29818e-08
1.34857e-08
1.14633e-08
1.38138e-08
1.54307e-08
1.08635e-08
1.24942e-08
1.3033e-08
7.32885e-09
1.40752e-08
1.3262e-08
1.01957e-08
1.98399e-08
1.56722e-08
2.04701e-08
3.14036e-08
2.48015e-08
4.34064e-08
1.1895e-07
1.57751e-07
2.79415e-07
7.24815e-07
1.31766e-06
1.99009e-06
2.87499e-06
3.96496e-06
5.31329e-06
6.81025e-06
8.46303e-06
1.0235e-05
1.2053e-05
1.38723e-05
1.56635e-05
1.73629e-05
1.86891e-05
1.92965e-05
1.93241e-05
1.89738e-05
1.84819e-05
1.83389e-05
1.874e-05
1.93722e-05
1.98896e-05
2.0078e-05
1.98016e-05
1.9047e-05
1.83292e-05
1.80072e-05
1.81489e-05
1.87127e-05
1.97031e-05
2.10803e-05
2.27708e-05
2.47104e-05
2.68424e-05
2.91208e-05
3.15027e-05
3.39638e-05
3.64578e-05
3.89663e-05
4.14075e-05
4.37755e-05
4.6042e-05
4.81446e-05
5.00651e-05
5.18202e-05
5.34397e-05
5.49258e-05
5.62071e-05
5.72512e-05
5.8064e-05
5.8648e-05
5.90082e-05
5.91667e-05
7.13879e-05
7.1206e-05
7.07939e-05
7.01268e-05
6.91981e-05
6.7999e-05
6.65247e-05
6.47998e-05
6.28882e-05
6.0796e-05
5.84975e-05
5.59771e-05
5.32554e-05
5.04088e-05
4.74795e-05
4.44734e-05
4.14751e-05
3.85067e-05
3.56252e-05
3.28645e-05
3.02852e-05
2.7948e-05
2.59271e-05
2.43018e-05
2.31647e-05
2.25625e-05
2.24954e-05
2.30054e-05
2.36236e-05
2.3835e-05
2.35351e-05
2.28262e-05
2.18853e-05
2.0968e-05
2.04252e-05
2.04746e-05
2.07591e-05
2.07017e-05
1.99935e-05
1.84955e-05
1.63451e-05
1.40273e-05
1.16498e-05
9.18145e-06
6.76899e-06
4.7062e-06
3.21175e-06
2.02402e-06
1.36431e-06
7.30521e-07
4.52028e-07
1.85273e-07
1.13801e-07
9.20156e-08
9.8165e-08
6.87967e-08
7.86977e-08
5.88901e-08
8.0959e-08
7.00733e-08
5.0633e-08
5.56657e-08
5.86499e-08
3.46083e-08
6.33152e-08
4.46542e-08
5.46035e-08
5.30094e-08
5.44706e-08
3.21499e-08
4.28726e-08
2.72095e-08
2.77007e-08
3.61755e-08
2.51071e-08
2.782e-08
3.49369e-08
2.64247e-08
2.7356e-08
2.73688e-08
1.2228e-08
1.24377e-08
1.14847e-08
3.95638e-09
8.97878e-09
9.32161e-09
9.31828e-09
2.5178e-09
6.05355e-09
3.4314e-09
5.90181e-09
3.51289e-09
2.30483e-09
1.08303e-09
2.67986e-09
1.95587e-09
7.32722e-10
4.71145e-10
4.97941e-10
9.7465e-11
4.16029e-10
3.55152e-10
3.44964e-11
7.04446e-12
1.42954e-10
3.4193e-10
4.24743e-10
2.02263e-10
2.3407e-09
3.16759e-09
4.81402e-09
1.50867e-08
1.61315e-08
2.70536e-08
3.55616e-08
4.39133e-08
2.79358e-08
3.15252e-08
7.85987e-08
6.05998e-08
3.9348e-08
9.41235e-08
6.26912e-08
3.26762e-08
5.08734e-08
1.62497e-09
1.49595e-09
1.12576e-15
1.022e-10
1.74394e-08
4.96941e-08
1.40922e-07
1.17992e-07
1.87265e-07
2.51567e-07
2.16282e-07
1.55699e-07
2.05709e-07
1.00561e-07
2.05956e-07
2.34171e-07
1.92746e-07
1.16563e-07
5.35011e-08
5.37622e-08
3.24071e-08
2.01892e-08
1.25539e-08
9.55712e-09
4.94859e-09
1.87247e-09
4.03311e-09
1.68854e-09
2.07254e-10
8.06585e-10
4.90595e-09
1.31376e-09
6.1971e-10
1.85873e-09
3.94579e-09
6.92308e-10
2.11011e-09
5.39107e-09
9.37558e-09
1.24849e-08
1.27142e-08
1.59951e-08
1.62388e-08
2.03407e-08
1.3374e-08
2.26965e-08
2.03819e-08
2.01669e-08
2.19683e-08
3.54088e-08
3.44053e-08
3.10172e-08
3.70208e-08
3.64014e-08
2.63897e-08
3.77503e-08
3.12317e-08
2.29993e-08
3.5551e-08
2.20113e-08
3.09159e-08
3.89361e-08
2.30274e-08
3.44812e-08
2.36111e-08
2.55985e-08
3.10145e-08
3.34615e-08
2.93537e-08
3.91e-08
2.20672e-08
2.87655e-08
2.73676e-08
2.09296e-08
2.12859e-08
4.03096e-08
3.19173e-08
3.66003e-08
4.82295e-08
1.69011e-07
3.31771e-07
6.37512e-07
1.26013e-06
2.11887e-06
3.3296e-06
4.78788e-06
6.79195e-06
9.14175e-06
1.15939e-05
1.40173e-05
1.63748e-05
1.85416e-05
2.00409e-05
2.0711e-05
2.07402e-05
2.04667e-05
2.04371e-05
2.09802e-05
2.18926e-05
2.28346e-05
2.35512e-05
2.38615e-05
2.36617e-05
2.30515e-05
2.25386e-05
2.26038e-05
2.31992e-05
2.43294e-05
2.59483e-05
2.79646e-05
3.02969e-05
3.28719e-05
3.56281e-05
3.85071e-05
4.14731e-05
4.44706e-05
4.74763e-05
5.04065e-05
5.32533e-05
5.59767e-05
5.84989e-05
6.08001e-05
6.28937e-05
6.48057e-05
6.65302e-05
6.80051e-05
6.92033e-05
7.01318e-05
7.07979e-05
7.12091e-05
7.13887e-05
8.40378e-05
8.38358e-05
8.33776e-05
8.26343e-05
8.15932e-05
8.02434e-05
7.85785e-05
7.66159e-05
7.44158e-05
7.1983e-05
6.93005e-05
6.63505e-05
6.31627e-05
5.98246e-05
5.63944e-05
5.28781e-05
4.93604e-05
4.5868e-05
4.24713e-05
3.92173e-05
3.61842e-05
3.34488e-05
3.11046e-05
2.92505e-05
2.79969e-05
2.73956e-05
2.74388e-05
2.7881e-05
2.79797e-05
2.75482e-05
2.66443e-05
2.54011e-05
2.40429e-05
2.29157e-05
2.23461e-05
2.22878e-05
2.21487e-05
2.14361e-05
1.9896e-05
1.74631e-05
1.45564e-05
1.16157e-05
8.59419e-06
5.68159e-06
3.41378e-06
2.07395e-06
1.04572e-06
6.11109e-07
2.25374e-07
2.0382e-07
1.18846e-07
7.30315e-08
8.90957e-08
7.65388e-08
9.79253e-08
8.9485e-08
9.13203e-08
9.33891e-08
1.0431e-07
8.68863e-08
9.51628e-08
8.54214e-08
8.59267e-08
6.40702e-08
7.71614e-08
6.37133e-08
5.51437e-08
7.85913e-08
4.77307e-08
6.11992e-08
4.80417e-08
3.97709e-08
4.14344e-08
4.66939e-08
3.80982e-08
4.2123e-08
4.51068e-08
2.90637e-08
4.46798e-08
4.13182e-08
4.55536e-08
4.15828e-08
4.82954e-08
2.26382e-08
3.47564e-08
4.01054e-08
3.72667e-08
2.67173e-08
1.87256e-08
1.45063e-08
1.42305e-08
1.42418e-08
1.10856e-08
6.91964e-09
9.06786e-09
8.08931e-09
2.66922e-09
7.2746e-09
4.94385e-09
3.38364e-09
1.50029e-09
3.03563e-09
5.16017e-10
2.88974e-10
3.53889e-10
4.45226e-10
7.82035e-10
3.71816e-10
3.58471e-09
7.35678e-09
3.14023e-09
7.28384e-09
6.28064e-09
9.28303e-09
2.41654e-08
1.83705e-08
6.88689e-08
3.83483e-08
3.55719e-08
7.36583e-08
5.13127e-08
8.08135e-08
1.09361e-07
3.57073e-08
9.89794e-08
7.16895e-09
5.89066e-10
4.23516e-14
4.4485e-09
4.21506e-08
7.32767e-08
1.57467e-07
1.21112e-07
1.45248e-07
1.58675e-07
1.3169e-07
9.16959e-08
7.29687e-08
9.1068e-08
1.63372e-07
1.09051e-07
7.47015e-08
2.50624e-08
7.95174e-09
2.37202e-08
8.67227e-09
6.30355e-09
7.12376e-09
4.07643e-09
3.46226e-09
6.28841e-10
1.66959e-09
1.03482e-09
8.70216e-10
9.62556e-09
1.8026e-08
8.70324e-09
3.69718e-09
1.40334e-08
1.90052e-08
1.31578e-08
2.48068e-08
3.21623e-08
4.02657e-08
3.19308e-08
5.15904e-08
4.51891e-08
6.08634e-08
3.29728e-08
5.5732e-08
4.3152e-08
7.7089e-08
3.99037e-08
6.83261e-08
5.38416e-08
5.94259e-08
5.63828e-08
5.72844e-08
4.93761e-08
4.0318e-08
4.77343e-08
5.07027e-08
4.83777e-08
6.76583e-08
5.6644e-08
7.12397e-08
6.24385e-08
5.60038e-08
5.59341e-08
5.85117e-08
5.77892e-08
6.43341e-08
5.9712e-08
6.33451e-08
4.62199e-08
5.77e-08
4.0733e-08
6.48363e-08
3.6521e-08
5.72467e-08
4.6235e-08
6.52879e-08
3.43123e-08
5.88531e-08
3.69189e-08
1.20157e-07
7.3025e-08
1.84383e-07
4.65274e-07
1.11672e-06
2.05852e-06
3.33605e-06
5.59525e-06
8.4986e-06
1.15768e-05
1.45808e-05
1.75205e-05
1.9959e-05
2.14642e-05
2.21406e-05
2.22791e-05
2.23571e-05
2.29315e-05
2.40535e-05
2.54113e-05
2.66618e-05
2.75763e-05
2.80193e-05
2.79303e-05
2.74895e-05
2.74454e-05
2.80391e-05
2.92844e-05
3.11304e-05
3.34687e-05
3.61981e-05
3.92261e-05
4.2475e-05
4.58687e-05
4.93585e-05
5.28753e-05
5.63912e-05
5.98225e-05
6.31608e-05
6.63505e-05
6.93026e-05
7.19882e-05
7.44226e-05
7.66234e-05
7.85858e-05
8.02513e-05
8.16002e-05
8.26409e-05
8.33829e-05
8.38397e-05
8.4039e-05
9.70169e-05
9.6797e-05
9.62979e-05
9.54818e-05
9.43343e-05
9.28417e-05
9.09931e-05
8.88007e-05
8.63188e-05
8.35531e-05
8.04871e-05
7.71097e-05
7.34525e-05
6.96183e-05
6.56804e-05
6.16436e-05
5.75922e-05
5.35614e-05
4.96347e-05
4.58743e-05
4.23806e-05
3.9248e-05
3.65895e-05
3.45269e-05
3.31881e-05
3.2623e-05
3.26789e-05
3.26078e-05
3.20218e-05
3.09205e-05
2.9421e-05
2.76937e-05
2.5992e-05
2.46671e-05
2.39626e-05
2.36654e-05
2.30464e-05
2.15323e-05
1.89919e-05
1.56707e-05
1.2094e-05
8.56648e-06
5.19818e-06
2.62351e-06
1.43097e-06
6.63126e-07
3.24228e-07
2.01997e-07
1.29702e-07
1.38707e-07
1.40982e-07
1.13748e-07
1.14469e-07
1.32662e-07
1.33795e-07
1.21848e-07
1.37415e-07
1.09877e-07
1.72324e-07
1.06004e-07
1.55245e-07
1.34068e-07
1.25021e-07
1.11018e-07
1.38797e-07
8.73779e-08
1.3304e-07
9.34411e-08
1.2534e-07
9.21585e-08
1.32539e-07
6.83221e-08
1.08814e-07
6.87963e-08
8.39756e-08
5.80099e-08
8.10448e-08
4.04728e-08
6.37401e-08
4.69902e-08
5.29237e-08
5.10584e-08
5.66566e-08
4.74071e-08
5.45674e-08
6.32419e-08
6.79078e-08
5.35261e-08
4.95772e-08
3.56939e-08
3.43487e-08
3.61413e-08
2.67095e-08
2.15057e-08
2.10482e-08
3.31279e-08
9.07906e-09
2.36063e-08
1.94594e-08
1.27816e-08
1.29528e-08
5.77718e-09
5.07295e-09
8.70981e-10
2.12079e-09
8.10529e-10
5.3594e-10
4.82126e-10
1.00955e-09
1.06452e-08
3.00947e-09
6.68214e-09
1.34298e-08
7.49894e-10
1.22029e-08
9.0803e-10
2.17804e-08
6.32576e-08
2.5527e-08
5.18798e-08
5.0475e-08
8.79527e-08
1.42692e-07
4.9352e-08
1.16004e-07
2.61697e-08
9.6183e-10
3.85086e-13
1.81198e-08
4.73786e-08
8.49882e-08
1.23442e-07
7.70749e-08
1.0559e-07
1.06321e-07
7.12985e-08
5.61677e-08
3.31018e-08
1.30451e-07
5.3771e-08
2.21003e-08
1.53415e-08
1.95662e-09
6.08062e-09
1.19336e-08
2.96746e-09
7.60023e-09
4.51244e-09