/*--------------------------------*- C++ -*----------------------------------*\
| =========                 |                                                 |
| \\      /  F ield         | OpenFOAM: The Open Source CFD Toolbox           |
|  \\    /   O peration     | Version:  v2006                                 |
|   \\  /    A nd           | Website:  www.openfoam.com                      |
|    \\/     M anipulation  |                                                 |
\*---------------------------------------------------------------------------*/
FoamFile
{
    version     2.0;
    format      ascii;
    class       volScalarField;
    location    "1000";
    object      cellVolu;
}
// * * * * * * * * * * * * * * * * * * * * * * * * * * * * * * * * * * * * * //

dimensions      [0 3 0 0 0 0 0];


internalField   nonuniform List<scalar> 
65536
(
9.23194e-05
9.23135e-05
9.23023e-05
9.23143e-05
9.23056e-05
9.23062e-05
9.23152e-05
9.23024e-05
9.22997e-05
9.2299e-05
9.23048e-05
9.23053e-05
9.23171e-05
9.23194e-05
9.23101e-05
9.22927e-05
9.22941e-05
9.23032e-05
9.23105e-05
9.23042e-05
9.23142e-05
9.23213e-05
9.23016e-05
9.22944e-05
9.23133e-05
9.2305e-05
9.23006e-05
9.23056e-05
9.23101e-05
9.23064e-05
9.22959e-05
9.23173e-05
9.23173e-05
9.22959e-05
9.23064e-05
9.23101e-05
9.23056e-05
9.23006e-05
9.2305e-05
9.23133e-05
9.22944e-05
9.23167e-05
9.23327e-05
9.23142e-05
9.23004e-05
9.23004e-05
9.23032e-05
9.22941e-05
9.23019e-05
9.2312e-05
9.23194e-05
9.23171e-05
9.23053e-05
9.23048e-05
9.2299e-05
9.23003e-05
9.2303e-05
9.23151e-05
9.23063e-05
9.23051e-05
9.2315e-05
9.23016e-05
9.23135e-05
9.23196e-05
9.23192e-05
9.23143e-05
9.23016e-05
9.23148e-05
9.23056e-05
9.23063e-05
9.23151e-05
9.23024e-05
9.22997e-05
9.2299e-05
9.23048e-05
9.23053e-05
9.23171e-05
9.23194e-05
9.23101e-05
9.22927e-05
9.22941e-05
9.23032e-05
9.23105e-05
9.23042e-05
9.22989e-05
9.23099e-05
9.23016e-05
9.22944e-05
9.23133e-05
9.2305e-05
9.23006e-05
9.23056e-05
9.23101e-05
9.2299e-05
9.22966e-05
9.23257e-05
9.23173e-05
9.22959e-05
9.23064e-05
9.23101e-05
9.22989e-05
9.22883e-05
9.2305e-05
9.23133e-05
9.22944e-05
9.23016e-05
9.23099e-05
9.22989e-05
9.23042e-05
9.23105e-05
9.23032e-05
9.22941e-05
9.22927e-05
9.23101e-05
9.23194e-05
9.23171e-05
9.23053e-05
9.23048e-05
9.2299e-05
9.22997e-05
9.23031e-05
9.23151e-05
9.23062e-05
9.23062e-05
9.23148e-05
9.23023e-05
9.23128e-05
9.23194e-05
9.23194e-05
9.23128e-05
9.23023e-05
9.23148e-05
9.23062e-05
9.23062e-05
9.23151e-05
9.23031e-05
9.22997e-05
9.2299e-05
9.23048e-05
9.23053e-05
9.23171e-05
9.23194e-05
9.23101e-05
9.22927e-05
9.22941e-05
9.23032e-05
9.23105e-05
9.23042e-05
9.22989e-05
9.23099e-05
9.23016e-05
9.22944e-05
9.23133e-05
9.2305e-05
9.22883e-05
9.22989e-05
9.23101e-05
9.23064e-05
9.22959e-05
9.23173e-05
9.23257e-05
9.22966e-05
9.2299e-05
9.23101e-05
9.23056e-05
9.23006e-05
9.2305e-05
9.23133e-05
9.22944e-05
9.23016e-05
9.23099e-05
9.22989e-05
9.23042e-05
9.23105e-05
9.23032e-05
9.22941e-05
9.22927e-05
9.23101e-05
9.23194e-05
9.23171e-05
9.23053e-05
9.23048e-05
9.2299e-05
9.22997e-05
9.23024e-05
9.23151e-05
9.23063e-05
9.23056e-05
9.23148e-05
9.23016e-05
9.23143e-05
9.23192e-05
9.23196e-05
9.23135e-05
9.23016e-05
9.2315e-05
9.23051e-05
9.23063e-05
9.23151e-05
9.2303e-05
9.23003e-05
9.2299e-05
9.23048e-05
9.23053e-05
9.23171e-05
9.23194e-05
9.2312e-05
9.23019e-05
9.22941e-05
9.23032e-05
9.23004e-05
9.23004e-05
9.23142e-05
9.23327e-05
9.23167e-05
9.22944e-05
9.23133e-05
9.2305e-05
9.23006e-05
9.23056e-05
9.23101e-05
9.23064e-05
9.22959e-05
9.23173e-05
9.23173e-05
9.22959e-05
9.23064e-05
9.23101e-05
9.23056e-05
9.23006e-05
9.2305e-05
9.23133e-05
9.22944e-05
9.23016e-05
9.23213e-05
9.23142e-05
9.23042e-05
9.23105e-05
9.23032e-05
9.22941e-05
9.22927e-05
9.23101e-05
9.23194e-05
9.23171e-05
9.23053e-05
9.23048e-05
9.2299e-05
9.22997e-05
9.23024e-05
9.23152e-05
9.23062e-05
9.23056e-05
9.23143e-05
9.23023e-05
9.23135e-05
9.23194e-05
9.28873e-05
9.2897e-05
9.29011e-05
9.28975e-05
9.29053e-05
9.29045e-05
9.28999e-05
9.29027e-05
9.29169e-05
9.28997e-05
9.28996e-05
9.28962e-05
9.28969e-05
9.29037e-05
9.29072e-05
9.29108e-05
9.28891e-05
9.28951e-05
9.29019e-05
9.28935e-05
9.28842e-05
9.29025e-05
9.29149e-05
9.29049e-05
9.29049e-05
9.29045e-05
9.28981e-05
9.28916e-05
9.28949e-05
9.29091e-05
9.29142e-05
9.28992e-05
9.28992e-05
9.29142e-05
9.29091e-05
9.28949e-05
9.28916e-05
9.28981e-05
9.29045e-05
9.29049e-05
9.29049e-05
9.29037e-05
9.28872e-05
9.28842e-05
9.29039e-05
9.29054e-05
9.28951e-05
9.28891e-05
9.29108e-05
9.29072e-05
9.29037e-05
9.28969e-05
9.28962e-05
9.28996e-05
9.28997e-05
9.2917e-05
9.29021e-05
9.28993e-05
9.29051e-05
9.29051e-05
9.28983e-05
9.29003e-05
9.2897e-05
9.28875e-05
9.28871e-05
9.28974e-05
9.29006e-05
9.28983e-05
9.29046e-05
9.29052e-05
9.28993e-05
9.2902e-05
9.29169e-05
9.28997e-05
9.28996e-05
9.29041e-05
9.2898e-05
9.29037e-05
9.29072e-05
9.29108e-05
9.28891e-05
9.28951e-05
9.29019e-05
9.28935e-05
9.28842e-05
9.29025e-05
9.29149e-05
9.29049e-05
9.29049e-05
9.29045e-05
9.28981e-05
9.28916e-05
9.28949e-05
9.29091e-05
9.29142e-05
9.28992e-05
9.28992e-05
9.29142e-05
9.29091e-05
9.28949e-05
9.29042e-05
9.29045e-05
9.29045e-05
9.29049e-05
9.29049e-05
9.29149e-05
9.29025e-05
9.28996e-05
9.29055e-05
9.28985e-05
9.28852e-05
9.28891e-05
9.29108e-05
9.29072e-05
9.29037e-05
9.2898e-05
9.29041e-05
9.28996e-05
9.28998e-05
9.29101e-05
9.29027e-05
9.28993e-05
9.29045e-05
9.29053e-05
9.28983e-05
9.29011e-05
9.28963e-05
9.28873e-05
9.28873e-05
9.28963e-05
9.29011e-05
9.28983e-05
9.29053e-05
9.29045e-05
9.28993e-05
9.29027e-05
9.29101e-05
9.28998e-05
9.28996e-05
9.29041e-05
9.2898e-05
9.29037e-05
9.29072e-05
9.29108e-05
9.28891e-05
9.28852e-05
9.28985e-05
9.29055e-05
9.28996e-05
9.29025e-05
9.29149e-05
9.29049e-05
9.29049e-05
9.29045e-05
9.29045e-05
9.29042e-05
9.28949e-05
9.29091e-05
9.29142e-05
9.28992e-05
9.28992e-05
9.29142e-05
9.29091e-05
9.28949e-05
9.28916e-05
9.28981e-05
9.29045e-05
9.29049e-05
9.29049e-05
9.29149e-05
9.29025e-05
9.28842e-05
9.28935e-05
9.29019e-05
9.28951e-05
9.28891e-05
9.29108e-05
9.29072e-05
9.29037e-05
9.2898e-05
9.29041e-05
9.28996e-05
9.28997e-05
9.29169e-05
9.2902e-05
9.28993e-05
9.29052e-05
9.29046e-05
9.28983e-05
9.29006e-05
9.28974e-05
9.28871e-05
9.28875e-05
9.2897e-05
9.29003e-05
9.28983e-05
9.29051e-05
9.29051e-05
9.28993e-05
9.29021e-05
9.2917e-05
9.28997e-05
9.28996e-05
9.28962e-05
9.28969e-05
9.29037e-05
9.29072e-05
9.29108e-05
9.28891e-05
9.28951e-05
9.29054e-05
9.29039e-05
9.28842e-05
9.28872e-05
9.29037e-05
9.29049e-05
9.29049e-05
9.29045e-05
9.28981e-05
9.28916e-05
9.28949e-05
9.29091e-05
9.29142e-05
9.28992e-05
9.28992e-05
9.29142e-05
9.29091e-05
9.28949e-05
9.28916e-05
9.28981e-05
9.29045e-05
9.29049e-05
9.29049e-05
9.29149e-05
9.29025e-05
9.28842e-05
9.28935e-05
9.29019e-05
9.28951e-05
9.28891e-05
9.29108e-05
9.29072e-05
9.29037e-05
9.28969e-05
9.28962e-05
9.28996e-05
9.28997e-05
9.29169e-05
9.29027e-05
9.28999e-05
9.29045e-05
9.29053e-05
9.28975e-05
9.29011e-05
9.2897e-05
9.28873e-05
9.35648e-05
9.35589e-05
9.3563e-05
9.356e-05
9.35517e-05
9.35523e-05
9.35475e-05
9.35347e-05
9.35325e-05
9.35456e-05
9.35634e-05
9.3558e-05
9.35416e-05
9.35294e-05
9.3536e-05
9.35566e-05
9.35576e-05
9.35465e-05
9.35375e-05
9.35504e-05
9.35577e-05
9.35428e-05
9.35403e-05
9.35447e-05
9.35529e-05
9.35331e-05
9.35398e-05
9.35589e-05
9.35584e-05
9.35498e-05
9.35333e-05
9.35308e-05
9.35308e-05
9.35333e-05
9.35498e-05
9.35584e-05
9.35589e-05
9.35398e-05
9.35331e-05
9.35472e-05
9.3533e-05
9.35403e-05
9.35428e-05
9.35577e-05
9.35504e-05
9.35375e-05
9.35465e-05
9.35576e-05
9.35566e-05
9.3536e-05
9.35294e-05
9.35416e-05
9.3558e-05
9.35634e-05
9.35456e-05
9.35332e-05
9.35353e-05
9.35474e-05
9.35523e-05
9.35517e-05
9.35605e-05
9.35627e-05
9.35589e-05
9.3565e-05
9.35646e-05
9.35593e-05
9.35627e-05
9.35602e-05
9.35517e-05
9.35523e-05
9.35469e-05
9.35347e-05
9.35325e-05
9.35456e-05
9.35634e-05
9.35573e-05
9.35333e-05
9.35294e-05
9.3536e-05
9.35566e-05
9.35576e-05
9.35465e-05
9.35375e-05
9.35504e-05
9.35577e-05
9.35428e-05
9.35403e-05
9.35447e-05
9.35529e-05
9.35331e-05
9.35522e-05
9.35656e-05
9.35584e-05
9.35498e-05
9.35333e-05
9.35308e-05
9.35308e-05
9.35472e-05
9.35589e-05
9.35584e-05
9.35589e-05
9.35398e-05
9.35331e-05
9.35472e-05
9.3533e-05
9.35403e-05
9.35428e-05
9.35459e-05
9.35348e-05
9.35477e-05
9.35495e-05
9.35576e-05
9.35566e-05
9.3536e-05
9.35294e-05
9.35333e-05
9.35573e-05
9.35634e-05
9.35529e-05
9.3532e-05
9.35354e-05
9.35475e-05
9.35516e-05
9.35523e-05
9.35607e-05
9.3563e-05
9.35581e-05
9.35648e-05
9.35648e-05
9.35581e-05
9.3563e-05
9.35607e-05
9.35523e-05
9.35516e-05
9.35475e-05
9.35354e-05
9.3532e-05
9.35529e-05
9.35634e-05
9.35573e-05
9.35333e-05
9.35294e-05
9.3536e-05
9.35566e-05
9.35576e-05
9.35495e-05
9.35477e-05
9.35348e-05
9.35459e-05
9.35428e-05
9.35403e-05
9.3533e-05
9.35472e-05
9.35331e-05
9.35398e-05
9.35589e-05
9.35584e-05
9.35589e-05
9.35472e-05
9.35308e-05
9.35308e-05
9.35333e-05
9.35498e-05
9.35584e-05
9.35656e-05
9.35522e-05
9.35331e-05
9.35529e-05
9.35447e-05
9.35403e-05
9.35428e-05
9.35577e-05
9.35504e-05
9.35375e-05
9.35465e-05
9.35576e-05
9.35566e-05
9.3536e-05
9.35294e-05
9.35333e-05
9.35573e-05
9.35634e-05
9.35456e-05
9.35325e-05
9.35347e-05
9.35469e-05
9.35523e-05
9.35517e-05
9.35602e-05
9.35627e-05
9.35593e-05
9.35646e-05
9.3565e-05
9.35589e-05
9.35627e-05
9.35605e-05
9.35517e-05
9.35523e-05
9.35474e-05
9.35353e-05
9.35332e-05
9.35456e-05
9.35634e-05
9.3558e-05
9.35416e-05
9.35294e-05
9.3536e-05
9.35566e-05
9.35576e-05
9.35465e-05
9.35375e-05
9.35504e-05
9.35577e-05
9.35428e-05
9.35403e-05
9.3533e-05
9.35472e-05
9.35331e-05
9.35398e-05
9.35589e-05
9.35584e-05
9.35498e-05
9.35333e-05
9.35308e-05
9.35308e-05
9.35333e-05
9.35498e-05
9.35584e-05
9.35589e-05
9.35398e-05
9.35331e-05
9.35529e-05
9.35447e-05
9.35403e-05
9.35428e-05
9.35577e-05
9.35504e-05
9.35375e-05
9.35465e-05
9.35576e-05
9.35566e-05
9.3536e-05
9.35294e-05
9.35416e-05
9.3558e-05
9.35634e-05
9.35456e-05
9.35325e-05
9.35347e-05
9.35475e-05
9.35523e-05
9.35517e-05
9.356e-05
9.3563e-05
9.35589e-05
9.35648e-05
9.42289e-05
9.4223e-05
9.42269e-05
9.42248e-05
9.42323e-05
9.42338e-05
9.42437e-05
9.42484e-05
9.42438e-05
9.42304e-05
9.4222e-05
9.42411e-05
9.42525e-05
9.42449e-05
9.42405e-05
9.42434e-05
9.42555e-05
9.4244e-05
9.42509e-05
9.42497e-05
9.42449e-05
9.42424e-05
9.42527e-05
9.4238e-05
9.4236e-05
9.4244e-05
9.42579e-05
9.42538e-05
9.42376e-05
9.42449e-05
9.42541e-05
9.42517e-05
9.42517e-05
9.42541e-05
9.42449e-05
9.42376e-05
9.42538e-05
9.42579e-05
9.4244e-05
9.42479e-05
9.42434e-05
9.42527e-05
9.42424e-05
9.42449e-05
9.42497e-05
9.42509e-05
9.42409e-05
9.42458e-05
9.42434e-05
9.42405e-05
9.42449e-05
9.42525e-05
9.42411e-05
9.4222e-05
9.42304e-05
9.42438e-05
9.42484e-05
9.42437e-05
9.42339e-05
9.42318e-05
9.42248e-05
9.42269e-05
9.42233e-05
9.42287e-05
9.42288e-05
9.42233e-05
9.42264e-05
9.42253e-05
9.42323e-05
9.42332e-05
9.42437e-05
9.42484e-05
9.42438e-05
9.42304e-05
9.4222e-05
9.42271e-05
9.42365e-05
9.42449e-05
9.42405e-05
9.42434e-05
9.42555e-05
9.4244e-05
9.42509e-05
9.42497e-05
9.42449e-05
9.42424e-05
9.42527e-05
9.4238e-05
9.4236e-05
9.4244e-05
9.42514e-05
9.42411e-05
9.42376e-05
9.42449e-05
9.42541e-05
9.42517e-05
9.42517e-05
9.42452e-05
9.42306e-05
9.42376e-05
9.42538e-05
9.42579e-05
9.4244e-05
9.42479e-05
9.42434e-05
9.42527e-05
9.42424e-05
9.42449e-05
9.42497e-05
9.42509e-05
9.42409e-05
9.42431e-05
9.42341e-05
9.42405e-05
9.42449e-05
9.42525e-05
9.42411e-05
9.4222e-05
9.42304e-05
9.42438e-05
9.42484e-05
9.42445e-05
9.42324e-05
9.42325e-05
9.42253e-05
9.42274e-05
9.42223e-05
9.42289e-05
9.42289e-05
9.42223e-05
9.42274e-05
9.42253e-05
9.42325e-05
9.42324e-05
9.42445e-05
9.42484e-05
9.42438e-05
9.42304e-05
9.4222e-05
9.42411e-05
9.42525e-05
9.42449e-05
9.42405e-05
9.42341e-05
9.42431e-05
9.42409e-05
9.42509e-05
9.42497e-05
9.42449e-05
9.42424e-05
9.42527e-05
9.42434e-05
9.42479e-05
9.4244e-05
9.42579e-05
9.42538e-05
9.42376e-05
9.42306e-05
9.42452e-05
9.42517e-05
9.42517e-05
9.42541e-05
9.42449e-05
9.42376e-05
9.42411e-05
9.42514e-05
9.4244e-05
9.4236e-05
9.4238e-05
9.42527e-05
9.42424e-05
9.42449e-05
9.42497e-05
9.42509e-05
9.4244e-05
9.42555e-05
9.42434e-05
9.42405e-05
9.42449e-05
9.42365e-05
9.42271e-05
9.4222e-05
9.42304e-05
9.42438e-05
9.42484e-05
9.42437e-05
9.42332e-05
9.42323e-05
9.42253e-05
9.42264e-05
9.42233e-05
9.42288e-05
9.42287e-05
9.42233e-05
9.42269e-05
9.42248e-05
9.42318e-05
9.42339e-05
9.42437e-05
9.42484e-05
9.42438e-05
9.42304e-05
9.4222e-05
9.42411e-05
9.42525e-05
9.42449e-05
9.42405e-05
9.42434e-05
9.42458e-05
9.42409e-05
9.42509e-05
9.42497e-05
9.42449e-05
9.42424e-05
9.42527e-05
9.42434e-05
9.42479e-05
9.4244e-05
9.42579e-05
9.42538e-05
9.42376e-05
9.42449e-05
9.42541e-05
9.42517e-05
9.42517e-05
9.42541e-05
9.42449e-05
9.42376e-05
9.42538e-05
9.42579e-05
9.4244e-05
9.4236e-05
9.4238e-05
9.42527e-05
9.42424e-05
9.42449e-05
9.42497e-05
9.42509e-05
9.4244e-05
9.42555e-05
9.42434e-05
9.42405e-05
9.42449e-05
9.42525e-05
9.42411e-05
9.4222e-05
9.42304e-05
9.42438e-05
9.42484e-05
9.42437e-05
9.42338e-05
9.42323e-05
9.42248e-05
9.42269e-05
9.4223e-05
9.42289e-05
9.49742e-05
9.49835e-05
9.49876e-05
9.49863e-05
9.49783e-05
9.49797e-05
9.49752e-05
9.49793e-05
9.49808e-05
9.49853e-05
9.50037e-05
9.49729e-05
9.49725e-05
9.49905e-05
9.49923e-05
9.4977e-05
9.49688e-05
9.49688e-05
9.49821e-05
9.49687e-05
9.49718e-05
9.49705e-05
9.49669e-05
9.49654e-05
9.49791e-05
9.49841e-05
9.49714e-05
9.497e-05
9.49723e-05
9.49918e-05
9.49999e-05
9.49971e-05
9.49971e-05
9.49999e-05
9.49918e-05
9.49723e-05
9.497e-05
9.49714e-05
9.49841e-05
9.49791e-05
9.49654e-05
9.49669e-05
9.49705e-05
9.49718e-05
9.49687e-05
9.49821e-05
9.49788e-05
9.49715e-05
9.49747e-05
9.49833e-05
9.49905e-05
9.49725e-05
9.49729e-05
9.50037e-05
9.49853e-05
9.49808e-05
9.49793e-05
9.49752e-05
9.49803e-05
9.49781e-05
9.49863e-05
9.49876e-05
9.49843e-05
9.49736e-05
9.4974e-05
9.49835e-05
9.49876e-05
9.49866e-05
9.49778e-05
9.49803e-05
9.4975e-05
9.49793e-05
9.49808e-05
9.49853e-05
9.50037e-05
9.49891e-05
9.49864e-05
9.49905e-05
9.49923e-05
9.4977e-05
9.49688e-05
9.49688e-05
9.49821e-05
9.49687e-05
9.49718e-05
9.49705e-05
9.49784e-05
9.49708e-05
9.49791e-05
9.49841e-05
9.49714e-05
9.497e-05
9.49723e-05
9.49918e-05
9.49909e-05
9.49832e-05
9.49971e-05
9.49999e-05
9.49918e-05
9.49723e-05
9.497e-05
9.49862e-05
9.49946e-05
9.49791e-05
9.49654e-05
9.49669e-05
9.49705e-05
9.49718e-05
9.49687e-05
9.49821e-05
9.49788e-05
9.49812e-05
9.49794e-05
9.49923e-05
9.49905e-05
9.49725e-05
9.49729e-05
9.50037e-05
9.49853e-05
9.49738e-05
9.49793e-05
9.49759e-05
9.49789e-05
9.49783e-05
9.49863e-05
9.49884e-05
9.49831e-05
9.49738e-05
9.49738e-05
9.49831e-05
9.49884e-05
9.49863e-05
9.49783e-05
9.49789e-05
9.49759e-05
9.49793e-05
9.49738e-05
9.49853e-05
9.50037e-05
9.49729e-05
9.49725e-05
9.49905e-05
9.49923e-05
9.49794e-05
9.49812e-05
9.49788e-05
9.49821e-05
9.49687e-05
9.49718e-05
9.49705e-05
9.49669e-05
9.49654e-05
9.49791e-05
9.49946e-05
9.49862e-05
9.497e-05
9.49723e-05
9.49918e-05
9.49999e-05
9.49971e-05
9.49832e-05
9.49909e-05
9.49918e-05
9.49723e-05
9.497e-05
9.49714e-05
9.49841e-05
9.49791e-05
9.49708e-05
9.49784e-05
9.49705e-05
9.49718e-05
9.49687e-05
9.49821e-05
9.49688e-05
9.49688e-05
9.4977e-05
9.49923e-05
9.49905e-05
9.49864e-05
9.49891e-05
9.50037e-05
9.49853e-05
9.49808e-05
9.49793e-05
9.4975e-05
9.49803e-05
9.49778e-05
9.49866e-05
9.49876e-05
9.49835e-05
9.4974e-05
9.49736e-05
9.49843e-05
9.49876e-05
9.49863e-05
9.49781e-05
9.49803e-05
9.49752e-05
9.49793e-05
9.49808e-05
9.49853e-05
9.50037e-05
9.49729e-05
9.49725e-05
9.49905e-05
9.49833e-05
9.49747e-05
9.49715e-05
9.49788e-05
9.49821e-05
9.49687e-05
9.49718e-05
9.49705e-05
9.49669e-05
9.49654e-05
9.49791e-05
9.49841e-05
9.49714e-05
9.497e-05
9.49723e-05
9.49918e-05
9.49999e-05
9.49971e-05
9.49971e-05
9.49999e-05
9.49918e-05
9.49723e-05
9.497e-05
9.49714e-05
9.49841e-05
9.49791e-05
9.49654e-05
9.49669e-05
9.49705e-05
9.49718e-05
9.49687e-05
9.49821e-05
9.49688e-05
9.49688e-05
9.4977e-05
9.49923e-05
9.49905e-05
9.49725e-05
9.49729e-05
9.50037e-05
9.49853e-05
9.49808e-05
9.49793e-05
9.49752e-05
9.49797e-05
9.49783e-05
9.49863e-05
9.49876e-05
9.49835e-05
9.49742e-05
9.57699e-05
9.5764e-05
9.57681e-05
9.57831e-05
9.57757e-05
9.57621e-05
9.57586e-05
9.57654e-05
9.57826e-05
9.5766e-05
9.57717e-05
9.57779e-05
9.57645e-05
9.5759e-05
9.57574e-05
9.57634e-05
9.57797e-05
9.57864e-05
9.57773e-05
9.57834e-05
9.57993e-05
9.57986e-05
9.57972e-05
9.57924e-05
9.57766e-05
9.57838e-05
9.57778e-05
9.57722e-05
9.57668e-05
9.5763e-05
9.5748e-05
9.57585e-05
9.57585e-05
9.5748e-05
9.5763e-05
9.57668e-05
9.57722e-05
9.57778e-05
9.57838e-05
9.57766e-05
9.57924e-05
9.57972e-05
9.57986e-05
9.57993e-05
9.57834e-05
9.57773e-05
9.57864e-05
9.57797e-05
9.57728e-05
9.57594e-05
9.5759e-05
9.57645e-05
9.57779e-05
9.57717e-05
9.5766e-05
9.57826e-05
9.57654e-05
9.57586e-05
9.57621e-05
9.57757e-05
9.57831e-05
9.57681e-05
9.57645e-05
9.57697e-05
9.57697e-05
9.5764e-05
9.57681e-05
9.57836e-05
9.57755e-05
9.57628e-05
9.57585e-05
9.57653e-05
9.57826e-05
9.5766e-05
9.57717e-05
9.57779e-05
9.57645e-05
9.5759e-05
9.57574e-05
9.57634e-05
9.57797e-05
9.57864e-05
9.57773e-05
9.57834e-05
9.57993e-05
9.57986e-05
9.57921e-05
9.57806e-05
9.57766e-05
9.57838e-05
9.57778e-05
9.57722e-05
9.57668e-05
9.5763e-05
9.57757e-05
9.57756e-05
9.57585e-05
9.5748e-05
9.5763e-05
9.57668e-05
9.57722e-05
9.57675e-05
9.57687e-05
9.57766e-05
9.57924e-05
9.57972e-05
9.57986e-05
9.57993e-05
9.57834e-05
9.57737e-05
9.57764e-05
9.57797e-05
9.57634e-05
9.57574e-05
9.5759e-05
9.57645e-05
9.57779e-05
9.57717e-05
9.57733e-05
9.57822e-05
9.57654e-05
9.57592e-05
9.57619e-05
9.57757e-05
9.57831e-05
9.57688e-05
9.57637e-05
9.57695e-05
9.57695e-05
9.57637e-05
9.57688e-05
9.57831e-05
9.57757e-05
9.57619e-05
9.57592e-05
9.57654e-05
9.57822e-05
9.57733e-05
9.57717e-05
9.57779e-05
9.57645e-05
9.5759e-05
9.57574e-05
9.57634e-05
9.57797e-05
9.57764e-05
9.57737e-05
9.57834e-05
9.57993e-05
9.57986e-05
9.57972e-05
9.57924e-05
9.57766e-05
9.57687e-05
9.57675e-05
9.57722e-05
9.57668e-05
9.5763e-05
9.5748e-05
9.57585e-05
9.57756e-05
9.57757e-05
9.5763e-05
9.57668e-05
9.57722e-05
9.57778e-05
9.57838e-05
9.57766e-05
9.57806e-05
9.57921e-05
9.57986e-05
9.57993e-05
9.57834e-05
9.57773e-05
9.57864e-05
9.57797e-05
9.57634e-05
9.57574e-05
9.5759e-05
9.57645e-05
9.57779e-05
9.57717e-05
9.5766e-05
9.57826e-05
9.57653e-05
9.57585e-05
9.57628e-05
9.57755e-05
9.57836e-05
9.57681e-05
9.5764e-05
9.57697e-05
9.57697e-05
9.57645e-05
9.57681e-05
9.57831e-05
9.57757e-05
9.57621e-05
9.57586e-05
9.57654e-05
9.57826e-05
9.5766e-05
9.57717e-05
9.57779e-05
9.57645e-05
9.5759e-05
9.57594e-05
9.57728e-05
9.57797e-05
9.57864e-05
9.57773e-05
9.57834e-05
9.57993e-05
9.57986e-05
9.57972e-05
9.57924e-05
9.57766e-05
9.57838e-05
9.57778e-05
9.57722e-05
9.57668e-05
9.5763e-05
9.5748e-05
9.57585e-05
9.57585e-05
9.5748e-05
9.5763e-05
9.57668e-05
9.57722e-05
9.57778e-05
9.57838e-05
9.57766e-05
9.57924e-05
9.57972e-05
9.57986e-05
9.57993e-05
9.57834e-05
9.57773e-05
9.57864e-05
9.57797e-05
9.57634e-05
9.57574e-05
9.5759e-05
9.57645e-05
9.57779e-05
9.57717e-05
9.5766e-05
9.57826e-05
9.57654e-05
9.57586e-05
9.57621e-05
9.57757e-05
9.57831e-05
9.57681e-05
9.5764e-05
9.57699e-05
9.66178e-05
9.66283e-05
9.66169e-05
9.66003e-05
9.66252e-05
9.66289e-05
9.66258e-05
9.66323e-05
9.66177e-05
9.66115e-05
9.66119e-05
9.66223e-05
9.66306e-05
9.66204e-05
9.66257e-05
9.6621e-05
9.65971e-05
9.65966e-05
9.66127e-05
9.66029e-05
9.66134e-05
9.66024e-05
9.65984e-05
9.66126e-05
9.66103e-05
9.6605e-05
9.65955e-05
9.66053e-05
9.66236e-05
9.66132e-05
9.66162e-05
9.66124e-05
9.66124e-05
9.66162e-05
9.66132e-05
9.66236e-05
9.66053e-05
9.65955e-05
9.6605e-05
9.66103e-05
9.66126e-05
9.65984e-05
9.66024e-05
9.66134e-05
9.65989e-05
9.66023e-05
9.66127e-05
9.66103e-05
9.6621e-05
9.66257e-05
9.66204e-05
9.66306e-05
9.66223e-05
9.66119e-05
9.66115e-05
9.66177e-05
9.66323e-05
9.66256e-05
9.66295e-05
9.66252e-05
9.66003e-05
9.66169e-05
9.66283e-05
9.6618e-05
9.66176e-05
9.66283e-05
9.66169e-05
9.66006e-05
9.66098e-05
9.66132e-05
9.66251e-05
9.66316e-05
9.66177e-05
9.66115e-05
9.66119e-05
9.66223e-05
9.66306e-05
9.66204e-05
9.66257e-05
9.6621e-05
9.65971e-05
9.65966e-05
9.66127e-05
9.66136e-05
9.66067e-05
9.65976e-05
9.65984e-05
9.66126e-05
9.66103e-05
9.6605e-05
9.65955e-05
9.66053e-05
9.66236e-05
9.66172e-05
9.6602e-05
9.65986e-05
9.66124e-05
9.66162e-05
9.66132e-05
9.66236e-05
9.66053e-05
9.65955e-05
9.6605e-05
9.66103e-05
9.66126e-05
9.65984e-05
9.65976e-05
9.66024e-05
9.66029e-05
9.66231e-05
9.66159e-05
9.66075e-05
9.66116e-05
9.66257e-05
9.66204e-05
9.66306e-05
9.66223e-05
9.66119e-05
9.66115e-05
9.66177e-05
9.66323e-05
9.66258e-05
9.66126e-05
9.66098e-05
9.66006e-05
9.66172e-05
9.66275e-05
9.66178e-05
9.66178e-05
9.66275e-05
9.66172e-05
9.66006e-05
9.66098e-05
9.66126e-05
9.66258e-05
9.66323e-05
9.66177e-05
9.66115e-05
9.66119e-05
9.66223e-05
9.66306e-05
9.66204e-05
9.66257e-05
9.66116e-05
9.66075e-05
9.66159e-05
9.66231e-05
9.66029e-05
9.66024e-05
9.65976e-05
9.65984e-05
9.66126e-05
9.66103e-05
9.6605e-05
9.65955e-05
9.66053e-05
9.66236e-05
9.66132e-05
9.66162e-05
9.66124e-05
9.65986e-05
9.6602e-05
9.66172e-05
9.66236e-05
9.66053e-05
9.65955e-05
9.6605e-05
9.66103e-05
9.66126e-05
9.65984e-05
9.65976e-05
9.66067e-05
9.66136e-05
9.66127e-05
9.65966e-05
9.65971e-05
9.6621e-05
9.66257e-05
9.66204e-05
9.66306e-05
9.66223e-05
9.66119e-05
9.66115e-05
9.66177e-05
9.66316e-05
9.66251e-05
9.66132e-05
9.66098e-05
9.66006e-05
9.66169e-05
9.66283e-05
9.66176e-05
9.6618e-05
9.66283e-05
9.66169e-05
9.66003e-05
9.66252e-05
9.66295e-05
9.66256e-05
9.66323e-05
9.66177e-05
9.66115e-05
9.66119e-05
9.66223e-05
9.66306e-05
9.66204e-05
9.66257e-05
9.6621e-05
9.66103e-05
9.66127e-05
9.66023e-05
9.65989e-05
9.66134e-05
9.66024e-05
9.65984e-05
9.66126e-05
9.66103e-05
9.6605e-05
9.65955e-05
9.66053e-05
9.66236e-05
9.66132e-05
9.66162e-05
9.66124e-05
9.66124e-05
9.66162e-05
9.66132e-05
9.66236e-05
9.66053e-05
9.65955e-05
9.6605e-05
9.66103e-05
9.66126e-05
9.65984e-05
9.66024e-05
9.66134e-05
9.66029e-05
9.66127e-05
9.65966e-05
9.65971e-05
9.6621e-05
9.66257e-05
9.66204e-05
9.66306e-05
9.66223e-05
9.66119e-05
9.66115e-05
9.66177e-05
9.66323e-05
9.66258e-05
9.66289e-05
9.66252e-05
9.66003e-05
9.66169e-05
9.66283e-05
9.66178e-05
9.7519e-05
9.75138e-05
9.75032e-05
9.75184e-05
9.75123e-05
9.75176e-05
9.75154e-05
9.75048e-05
9.75109e-05
9.75061e-05
9.75029e-05
9.75089e-05
9.75145e-05
9.75105e-05
9.74976e-05
9.75024e-05
9.75158e-05
9.75211e-05
9.75209e-05
9.75113e-05
9.75064e-05
9.75034e-05
9.75232e-05
9.75164e-05
9.75135e-05
9.75188e-05
9.75232e-05
9.75145e-05
9.75084e-05
9.75084e-05
9.7519e-05
9.75065e-05
9.75065e-05
9.7519e-05
9.75084e-05
9.75084e-05
9.75145e-05
9.75232e-05
9.75188e-05
9.75135e-05
9.75164e-05
9.75232e-05
9.75034e-05
9.75064e-05
9.7522e-05
9.75246e-05
9.75081e-05
9.74996e-05
9.75024e-05
9.74976e-05
9.75105e-05
9.75145e-05
9.75089e-05
9.75029e-05
9.75061e-05
9.75109e-05
9.75048e-05
9.75148e-05
9.75178e-05
9.75123e-05
9.75184e-05
9.75032e-05
9.75138e-05
9.75192e-05
9.75188e-05
9.75142e-05
9.75029e-05
9.75184e-05
9.75289e-05
9.75325e-05
9.75154e-05
9.75047e-05
9.75109e-05
9.75061e-05
9.75029e-05
9.75089e-05
9.75145e-05
9.75105e-05
9.74976e-05
9.75024e-05
9.75158e-05
9.75211e-05
9.75209e-05
9.75073e-05
9.74998e-05
9.75148e-05
9.75232e-05
9.75164e-05
9.75135e-05
9.75188e-05
9.75232e-05
9.75145e-05
9.75084e-05
9.75151e-05
9.75145e-05
9.75065e-05
9.75065e-05
9.7519e-05
9.75084e-05
9.75084e-05
9.75145e-05
9.75232e-05
9.75188e-05
9.75135e-05
9.75164e-05
9.75232e-05
9.75148e-05
9.75108e-05
9.75113e-05
9.75209e-05
9.75081e-05
9.75094e-05
9.75048e-05
9.74976e-05
9.75105e-05
9.75145e-05
9.75089e-05
9.75029e-05
9.75061e-05
9.75109e-05
9.75048e-05
9.75156e-05
9.75324e-05
9.75287e-05
9.75189e-05
9.75036e-05
9.7513e-05
9.7519e-05
9.7519e-05
9.7513e-05
9.75036e-05
9.75189e-05
9.75287e-05
9.75324e-05
9.75156e-05
9.75048e-05
9.75109e-05
9.75061e-05
9.75029e-05
9.75089e-05
9.75145e-05
9.75105e-05
9.74976e-05
9.75048e-05
9.75094e-05
9.75081e-05
9.75209e-05
9.75113e-05
9.75108e-05
9.75148e-05
9.75232e-05
9.75164e-05
9.75135e-05
9.75188e-05
9.75232e-05
9.75145e-05
9.75084e-05
9.75084e-05
9.7519e-05
9.75065e-05
9.75065e-05
9.75145e-05
9.75151e-05
9.75084e-05
9.75145e-05
9.75232e-05
9.75188e-05
9.75135e-05
9.75164e-05
9.75232e-05
9.75148e-05
9.74998e-05
9.75073e-05
9.75209e-05
9.75211e-05
9.75158e-05
9.75024e-05
9.74976e-05
9.75105e-05
9.75145e-05
9.75089e-05
9.75029e-05
9.75061e-05
9.75109e-05
9.75047e-05
9.75154e-05
9.75325e-05
9.75289e-05
9.75184e-05
9.75029e-05
9.75142e-05
9.75188e-05
9.75192e-05
9.75138e-05
9.75032e-05
9.75184e-05
9.75123e-05
9.75178e-05
9.75148e-05
9.75048e-05
9.75109e-05
9.75061e-05
9.75029e-05
9.75089e-05
9.75145e-05
9.75105e-05
9.74976e-05
9.75024e-05
9.74996e-05
9.75081e-05
9.75246e-05
9.7522e-05
9.75064e-05
9.75034e-05
9.75232e-05
9.75164e-05
9.75135e-05
9.75188e-05
9.75232e-05
9.75145e-05
9.75084e-05
9.75084e-05
9.7519e-05
9.75065e-05
9.75065e-05
9.7519e-05
9.75084e-05
9.75084e-05
9.75145e-05
9.75232e-05
9.75188e-05
9.75135e-05
9.75164e-05
9.75232e-05
9.75034e-05
9.75064e-05
9.75113e-05
9.75209e-05
9.75211e-05
9.75158e-05
9.75024e-05
9.74976e-05
9.75105e-05
9.75145e-05
9.75089e-05
9.75029e-05
9.75061e-05
9.75109e-05
9.75048e-05
9.75154e-05
9.75176e-05
9.75123e-05
9.75184e-05
9.75032e-05
9.75138e-05
9.7519e-05
9.84587e-05
9.84535e-05
9.84592e-05
9.84593e-05
9.84544e-05
9.84441e-05
9.8444e-05
9.8453e-05
9.84612e-05
9.84674e-05
9.84607e-05
9.84476e-05
9.84555e-05
9.84653e-05
9.84729e-05
9.84673e-05
9.84575e-05
9.84659e-05
9.84517e-05
9.84465e-05
9.84472e-05
9.84523e-05
9.84469e-05
9.84543e-05
9.84653e-05
9.84565e-05
9.84679e-05
9.84699e-05
9.84632e-05
9.84597e-05
9.84632e-05
9.84726e-05
9.8464e-05
9.84494e-05
9.84597e-05
9.84632e-05
9.84699e-05
9.84679e-05
9.84502e-05
9.84471e-05
9.84423e-05
9.84469e-05
9.84523e-05
9.84472e-05
9.84465e-05
9.84517e-05
9.84659e-05
9.84575e-05
9.84673e-05
9.84729e-05
9.84653e-05
9.84555e-05
9.84476e-05
9.84607e-05
9.84674e-05
9.84612e-05
9.8453e-05
9.84439e-05
9.84447e-05
9.84544e-05
9.84593e-05
9.84592e-05
9.84538e-05
9.84584e-05
9.84585e-05
9.84543e-05
9.84585e-05
9.84598e-05
9.84542e-05
9.84447e-05
9.8444e-05
9.84523e-05
9.84612e-05
9.84674e-05
9.84607e-05
9.84476e-05
9.84555e-05
9.84653e-05
9.84729e-05
9.84673e-05
9.84575e-05
9.84659e-05
9.84517e-05
9.84465e-05
9.84472e-05
9.84523e-05
9.84469e-05
9.84543e-05
9.8453e-05
9.84502e-05
9.84679e-05
9.84699e-05
9.84632e-05
9.84597e-05
9.84632e-05
9.84726e-05
9.8464e-05
9.84494e-05
9.84597e-05
9.84632e-05
9.84699e-05
9.84679e-05
9.84502e-05
9.84471e-05
9.84423e-05
9.84469e-05
9.84523e-05
9.84472e-05
9.84465e-05
9.84517e-05
9.84659e-05
9.84738e-05
9.84808e-05
9.84729e-05
9.84653e-05
9.84555e-05
9.84476e-05
9.84607e-05
9.84674e-05
9.84612e-05
9.8453e-05
9.8444e-05
9.8444e-05
9.84544e-05
9.84595e-05
9.84595e-05
9.84531e-05
9.84583e-05
9.84583e-05
9.84531e-05
9.84595e-05
9.84595e-05
9.84544e-05
9.8444e-05
9.8444e-05
9.8453e-05
9.84612e-05
9.84674e-05
9.84607e-05
9.84476e-05
9.84555e-05
9.84653e-05
9.84729e-05
9.84808e-05
9.84738e-05
9.84659e-05
9.84517e-05
9.84465e-05
9.84472e-05
9.84523e-05
9.84469e-05
9.84423e-05
9.84471e-05
9.84502e-05
9.84679e-05
9.84699e-05
9.84632e-05
9.84597e-05
9.84494e-05
9.8464e-05
9.84726e-05
9.84632e-05
9.84597e-05
9.84632e-05
9.84699e-05
9.84679e-05
9.84502e-05
9.8453e-05
9.84543e-05
9.84469e-05
9.84523e-05
9.84472e-05
9.84465e-05
9.84517e-05
9.84659e-05
9.84575e-05
9.84673e-05
9.84729e-05
9.84653e-05
9.84555e-05
9.84476e-05
9.84607e-05
9.84674e-05
9.84612e-05
9.84523e-05
9.8444e-05
9.84447e-05
9.84542e-05
9.84598e-05
9.84585e-05
9.84543e-05
9.84585e-05
9.84584e-05
9.84538e-05
9.84592e-05
9.84593e-05
9.84544e-05
9.84447e-05
9.84439e-05
9.8453e-05
9.84612e-05
9.84674e-05
9.84607e-05
9.84476e-05
9.84555e-05
9.84653e-05
9.84729e-05
9.84673e-05
9.84575e-05
9.84659e-05
9.84517e-05
9.84465e-05
9.84472e-05
9.84523e-05
9.84469e-05
9.84423e-05
9.84471e-05
9.84502e-05
9.84679e-05
9.84699e-05
9.84632e-05
9.84597e-05
9.84494e-05
9.8464e-05
9.84726e-05
9.84632e-05
9.84597e-05
9.84632e-05
9.84699e-05
9.84679e-05
9.84565e-05
9.84653e-05
9.84543e-05
9.84469e-05
9.84523e-05
9.84472e-05
9.84465e-05
9.84517e-05
9.84659e-05
9.84575e-05
9.84673e-05
9.84729e-05
9.84653e-05
9.84555e-05
9.84476e-05
9.84607e-05
9.84674e-05
9.84612e-05
9.8453e-05
9.8444e-05
9.84441e-05
9.84544e-05
9.84593e-05
9.84592e-05
9.84535e-05
9.84587e-05
9.94699e-05
9.94648e-05
9.94711e-05
9.94561e-05
9.9452e-05
9.94753e-05
9.94767e-05
9.9454e-05
9.9463e-05
9.94574e-05
9.94543e-05
9.94665e-05
9.9465e-05
9.94477e-05
9.94715e-05
9.94713e-05
9.9454e-05
9.94577e-05
9.94674e-05
9.94735e-05
9.94714e-05
9.94661e-05
9.94576e-05
9.94624e-05
9.94628e-05
9.94527e-05
9.94512e-05
9.9448e-05
9.94506e-05
9.94543e-05
9.94638e-05
9.94578e-05
9.94719e-05
9.9472e-05
9.94543e-05
9.94506e-05
9.9448e-05
9.94512e-05
9.94654e-05
9.94811e-05
9.9468e-05
9.94576e-05
9.94661e-05
9.94714e-05
9.94735e-05
9.94674e-05
9.94577e-05
9.9454e-05
9.94713e-05
9.94715e-05
9.94477e-05
9.9465e-05
9.94665e-05
9.94543e-05
9.94574e-05
9.9463e-05
9.9454e-05
9.9476e-05
9.94756e-05
9.94514e-05
9.94564e-05
9.94706e-05
9.94652e-05
9.94697e-05
9.94697e-05
9.94651e-05
9.94706e-05
9.94564e-05
9.94514e-05
9.94755e-05
9.9476e-05
9.9454e-05
9.9463e-05
9.94574e-05
9.94621e-05
9.94674e-05
9.9465e-05
9.94477e-05
9.94715e-05
9.94713e-05
9.9454e-05
9.94577e-05
9.94674e-05
9.94735e-05
9.94714e-05
9.94661e-05
9.94576e-05
9.94624e-05
9.94688e-05
9.94654e-05
9.94512e-05
9.9448e-05
9.94506e-05
9.94543e-05
9.94638e-05
9.94578e-05
9.94719e-05
9.9472e-05
9.94543e-05
9.94506e-05
9.9448e-05
9.94512e-05
9.94654e-05
9.94811e-05
9.9468e-05
9.94576e-05
9.94661e-05
9.94714e-05
9.94735e-05
9.94674e-05
9.94577e-05
9.94406e-05
9.94548e-05
9.94715e-05
9.94477e-05
9.9465e-05
9.94665e-05
9.94543e-05
9.94574e-05
9.9463e-05
9.94547e-05
9.94767e-05
9.94747e-05
9.94522e-05
9.94564e-05
9.94711e-05
9.94644e-05
9.94695e-05
9.94695e-05
9.94644e-05
9.94711e-05
9.94564e-05
9.94522e-05
9.94747e-05
9.94767e-05
9.94547e-05
9.9463e-05
9.94574e-05
9.94543e-05
9.94665e-05
9.9465e-05
9.94477e-05
9.94715e-05