/*--------------------------------*- C++ -*----------------------------------*\
| =========                 |                                                 |
| \\      /  F ield         | OpenFOAM: The Open Source CFD Toolbox           |
|  \\    /   O peration     | Version:  v2006                                 |
|   \\  /    A nd           | Website:  www.openfoam.com                      |
|    \\/     M anipulation  |                                                 |
\*---------------------------------------------------------------------------*/
FoamFile
{
    version     2.0;
    format      ascii;
    class       volScalarField;
    location    "1000";
    object      ducSensor;
}
// * * * * * * * * * * * * * * * * * * * * * * * * * * * * * * * * * * * * * //

dimensions      [0 0 0 0 0 0 0];


internalField   nonuniform List<scalar> 
65536
(
0.0324636
0.0327016
0.0335192
0.032633
0.032531
0.0296152
0.029954
0.0275709
0.0269636
0.0136186
0.0202469
0.0142942
0.016266
0.0205651
0.0151152
0.0237815
0.0204681
0.025549
0.0221192
0.0265815
0.0219898
0.0266405
0.0212482
0.0269653
0.020794
0.0258919
0.020355
0.0248091
0.0216017
0.0240108
0.0242582
0.0257052
0.0255041
0.0256031
0.0318129
0.0377534
0.0468222
0.0505638
0.0277914
0.0155973
0.012825
0.0243986
0.0266078
0.0299315
0.0312645
0.0321445
0.032516
0.0339052
0.0337059
0.0342077
0.0346097
0.0345974
0.0349223
0.0353863
0.0351477
0.0353346
0.035407
0.035704
0.0357544
0.0358216
0.0358847
0.0356798
0.0359103
0.0360749
0.0363844
0.0358471
0.0365452
0.0357148
0.0364382
0.0362048
0.0358406
0.0357433
0.0360415
0.036063
0.036013
0.0359972
0.0353994
0.03593
0.0358879
0.0353777
0.0350822
0.0354615
0.0354707
0.0344231
0.0344223
0.0363151
0.0349559
0.0314092
0.0350199
0.0343866
0.0339947
0.0349024
0.0320125
0.033749
0.0345314
0.0321139
0.0326117
0.0322609
0.0306376
0.0338767
0.0304897
0.0262047
0.0315965
0.0318079
0.0297035
0.0276574
0.0293277
0.0292405
0.0235449
0.0270351
0.0242654
0.017915
0.023665
0.0147018
0.0234048
0.0180519
0.0164803
0.0224277
0.0292546
0.0244923
0.0313329
0.0415503
0.0389205
0.0460202
0.0513993
0.0538672
0.0557902
0.0564904
0.0520439
0.0560427
0.0577134
0.0537415
0.0401185
0.0443339
0.0349175
0.0362326
0.0318198
0.033154
0.0241297
0.0251982
0.0266721
0.0201523
0.0210512
0.021454
0.0201211
0.0299754
0.0271201
0.0214519
0.0291234
0.0301295
0.0284756
0.0287402
0.0320144
0.030005
0.0261506
0.0328684
0.0345788
0.0279399
0.0301628
0.0363934
0.0312979
0.0281796
0.036531
0.0328476
0.032605
0.0341685
0.0334133
0.0362379
0.032156
0.0347997
0.0348237
0.0353539
0.0353944
0.0340925
0.0358313
0.0352787
0.0364794
0.0352719
0.0359538
0.0359762
0.0357929
0.0364924
0.0356954
0.0359838
0.035737
0.0365263
0.0357623
0.0370269
0.0357371
0.0362554
0.0360604
0.0362629
0.0358934
0.0363119
0.0358012
0.0360415
0.0361845
0.0357054
0.0354888
0.0354334
0.0353138
0.0352545
0.0350587
0.0347632
0.0347775
0.0348754
0.0340822
0.0339285
0.0338827
0.0328592
0.0317013
0.0307575
0.0299587
0.0268732
0.0217621
0.0203326
0.0126567
0.0209048
0.0486512
0.0418802
0.0379285
0.0303661
0.0255854
0.0250799
0.0253948
0.0240877
0.0245302
0.0216223
0.0242479
0.0194545
0.0251451
0.0222504
0.0255457
0.0228308
0.0257273
0.0233719
0.0256178
0.0228795
0.0246944
0.0214168
0.0229031
0.0172174
0.0192492
0.0143004
0.00848981
0.0194671
0.0089776
0.0264833
0.0280115
0.029605
0.030003
0.0321959
0.0330043
0.0332152
0.0330236
0.0323387
0.0282082
0.0290956
0.0290968
0.0291983
0.0280945
0.0274307
0.0259885
0.0257607
0.0238934
0.0107247
0.0189651
0.0172596
0.0108345
0.0144068
0.0170629
0.0137523
0.0207532
0.018743
0.0225778
0.0200336
0.0238913
0.020281
0.0241039
0.0194975
0.0240239
0.0205999
0.0221188
0.0174966
0.0212839
0.0210088
0.0237372
0.0239357
0.0257087
0.0283445
0.0294012
0.0323969
0.0310832
0.036321
0.0290913
0.0275503
0.0244961
0.0168117
0.0167879
0.0136106
0.0147167
0.0201376
0.0217915
0.0230513
0.0235825
0.0236558
0.0250698
0.0254045
0.025628
0.0263853
0.026263
0.0277906
0.0275729
0.0276092
0.0280678
0.0285202
0.0286058
0.0291495
0.0284581
0.0289171
0.0293905
0.0301975
0.0293863
0.0311582
0.0296033
0.0306233
0.030841
0.0303169
0.0301247
0.0307842
0.0306491
0.0311799
0.0319376
0.0304813
0.0314643
0.0322409
0.0330026
0.0315396
0.0321162
0.03284
0.0328037
0.0292497
0.0337888
0.0356492
0.0275815
0.0318287
0.0349205
0.0334231
0.0341041
0.0321543
0.0322185
0.0374776
0.0300707
0.0275035
0.0309662
0.0236427
0.0327386
0.0327185
0.024774
0.0240164
0.0306836
0.0319994
0.0269295
0.0253011
0.0117763
0.0330041
0.0250092
0.026477
0.0359338
0.0376782
0.0319686
0.0431012
0.0324437
0.0388892
0.0518638
0.0563592
0.0668303
0.0652352
0.0685475
0.0644441
0.0659535
0.065563
0.0613821
0.0556919
0.0634988
0.0647154
0.0658176
0.0641422
0.0654689
0.0662143
0.0609303
0.0664482
0.0615175
0.0589131
0.0326949
0.0414571
0.0297517
0.0418488
0.0308288
0.033577
0.0304031
0.0276438
0.0268374
0.0321379
0.0252137
0.0286665
0.0274461
0.0318077
0.0299653
0.026554
0.0363929
0.0362921
0.0189224
0.0343323
0.0375463
0.0210139
0.0332518
0.0354889
0.0244809
0.0328629
0.0332162
0.0332129
0.0323312
0.0220614
0.0336356
0.031945
0.0326342
0.029434
0.0313095
0.0325229
0.0310392
0.0329578
0.030208
0.0315798
0.0314693
0.0304674
0.032001
0.0302879
0.0309205
0.0305804
0.0312319
0.0299343
0.0314171
0.0291013
0.0304368
0.0295441
0.0298717
0.0288873
0.0294444
0.0282611
0.0285921
0.028534
0.0276407
0.0273766
0.0279647
0.0268032
0.0270455
0.026724
0.0248443
0.0253122
0.0256848
0.0249588
0.0230881
0.023367
0.023343
0.0204972
0.0176865
0.0148565
0.00813744
0.0151637
0.0124216
0.0247451
0.0277408
0.0294021
0.0359215
0.0312086
0.032816
0.0296207
0.0284632
0.0257459
0.0240251
0.0238511
0.0210419
0.0211941
0.0179548
0.0222464
0.0213538
0.023171
0.0210701
0.0233125
0.021184
0.0231517
0.0209782
0.0219902
0.0196456
0.0201049
0.0153022
0.0159839
0.0130064
0.013039
0.0166315
0.0192429
0.00918153
0.0239614
0.0256221
0.026133
0.0273101
0.0281992
0.0290977
0.0292171
0.0289797
0.0285379
0.0256292
0.0259369
0.026383
0.0260776
0.0254688
0.0240429
0.02288
0.01994
0.0197977
0.00903521
0.0184526
0.0108619
0.015918
0.00886857
0.0144324
0.0115279
0.0115447
0.0148268
0.00554054
0.0164949
0.00993819
0.017565
0.0116382
0.0180113
0.0138715
0.0183961
0.00801054
0.0174648
0.0100331
0.0184488
0.0172405
0.0195198
0.0243359
0.02728
0.0286948
0.0318399
0.0296383
0.0283494
0.0324523
0.0286438
0.0234089
0.0182359
0.0161852
0.0132064
0.0189284
0.0208876
0.0218396
0.023588
0.0230248
0.0238982
0.0240882
0.0234513
0.0229348
0.0235651
0.0249774
0.0242124
0.0259454
0.0263767
0.022609
0.0251256
0.0243562
0.0221432
0.0253142
0.0224672
0.0217773
0.0211196
0.022998
0.0157998
0.0241273
0.0167124
0.0186624
0.0213927
0.00991273
0.0172849
0.0194331
0.0224172
0.0186936
0.0189169
0.0274378
0.0134344
0.0238079
0.0232225
0.0226613
0.0338713
0.0269613
0.0160034
0.0396304
0.0409248
0.0332663
0.037174
0.0392766
0.0306087
0.0475632
0.036379
0.0353871
0.0478468
0.0403226
0.055679
0.0572053
0.0656135
0.0408577
0.0508919
0.0661234
0.0638205
0.0521
0.0380442
0.054706
0.0624731
0.0566737
0.0957012
0.124536
0.0968517
0.0387403
0.0359013
0.124248
0.112851
0.137634
0.0419128
0.122323
0.158942
0.174629
0.342987
0.289214
0.365982
0.334277
0.301034
0.303009
0.258697
0.271122
0.282149
0.33021
0.343009
0.304735
0.338313
0.24487
0.204954
0.121359
0.137727
0.0172817
0.157225
0.150405
0.0250423
0.0377813
0.0463663
0.0467108
0.0713929
0.1348
0.144545
0.0633224
0.0483954
0.0589528
0.0494569
0.0379625
0.0366828
0.0433699
0.0306806
0.0433685
0.0367393
0.0517788
0.0449846
0.0369249
0.0496009
0.0340823
0.0179643
0.0125352
0.0255529
0.0422517
0.0210944
0.026969
0.0313013
0.0323623
0.0296135
0.0227302
0.0305019
0.0239933
0.0322617
0.00676532
0.0237281
0.0233202
0.0170866
0.0222453
0.017117
0.00632523
0.0196317
0.00911086
0.0234024
0.0109685
0.0238162
0.0229401
0.0237285
0.0228557
0.0258331
0.0211651
0.0258763
0.0242758
0.0229254
0.0248987
0.0257889
0.0246927
0.0259156
0.024799
0.0241702
0.0236667
0.0235974
0.0230309
0.024743
0.0240707
0.022901
0.0235916
0.0220863
0.0208732
0.0185726
0.0135975
0.0179964
0.0171401
0.0234402
0.0287369
0.0323696
0.0285536
0.0296485
0.03168
0.0286274
0.0270756
0.02459
0.0185023
0.01855
0.0173601
0.0142127
0.0159458
0.0117135
0.0175006
0.0156229
0.0168432
0.0143014
0.0167725
0.0132406
0.0155439
0.010141
0.0138417
0.00935743
0.00974367
0.0135764
0.0108479
0.0155127
0.011928
0.0181863
0.00714942
0.0195536
0.0201187
0.0227399
0.0241236
0.0253945
0.0261234
0.0263485
0.0259681
0.0257098
0.0227859
0.0230882
0.0231229
0.0235603
0.0232298
0.0228793
0.0214055
0.0195616
0.0184754
0.0153026
0.0165452
0.0148105
0.0135182
0.0142927
0.00994648
0.0128492
0.0107708
0.00910471
0.0144176
0.00466108
0.0135313
0.00984421
0.0152647
0.00676498
0.0166906
0.00843829
0.0164843
0.0150134
0.0171902
0.0179615
0.0194223
0.0199894
0.0239793
0.0267079
0.0280375
0.0290631
0.0222838
0.012228
0.0332771
0.0264916
0.0112968
0.0210932
0.0139322
0.0110112
0.0197344
0.0210095
0.021638
0.0227221
0.0230329
0.0258833
0.0244493
0.0242284
0.0244925
0.0259915
0.0277965
0.0284324
0.0288456
0.0305295
0.030456
0.0319481
0.0311839
0.0327132
0.0322082
0.034805
0.0359357
0.0362958
0.0366947
0.0384138
0.037079
0.0408348
0.0394238
0.0388442
0.0427711
0.0410046
0.0429416
0.046123
0.0437559
0.0455807
0.0479291
0.0518628
0.0500883
0.0547323
0.0568909
0.0371495
0.0585001
0.19788
0.32347
0.239075
0.19894
0.314199
0.0184941
0.0599326
0.190157
0.0413985
0.0561251
0.0565523
0.0505399
0.0398303
0.0541476
0.0526376
0.039863
0.0490723
0.0508752
0.0552148
0.0175585
0.053843
0.0528393
0.0398057
0.0550408
0.0993311
0.0575334
0.0850377
0.0340373
0.0336146
0.156578
0.0450092
0.0481101
0.0462007
0.0469237
0.033081
0.0319286
0.0590615
0.039169
0.0378462
0.046689
0.0390243
0.0364705
0.0496907
0.0420237
0.0412663
0.0400095
0.0225084
0.0437779
0.0468154
0.0519241
0.0441183
0.0290406
0.121847
0.0480917
0.0335172
0.174975
0.0307005
0.0308757
0.039116
0.0363437
0.0781968
0.0454368
0.0510061
0.040581
0.0355583
0.0438452
0.0534249
0.0432032
0.0531951
0.0404542
0.0501039
0.0451119
0.0459745
0.0588277
0.0534586
0.0541163
0.051182
0.0461411
0.0606478
0.060034
0.0256006
0.123201
0.052709
0.0618468
0.0326597
0.0529831
0.119698
0.0628819
0.0557262
0.0595461
0.054375
0.0570224
0.0515394
0.0517807
0.0472423
0.0455559
0.0469185
0.0426016
0.0419551
0.0432649
0.0372586
0.0399262
0.0376066
0.0363374
0.0344108
0.0358923
0.0345894
0.0344272
0.0336676
0.0311617
0.0326332
0.0312428
0.029511
0.0303517
0.0283408
0.0281613
0.0286091
0.0246382
0.0241762
0.0256517
0.0261971
0.0255255
0.0236218
0.0226005
0.0231104
0.0213322
0.0196892
0.0158193
0.0127982
0.0213629
0.011806
0.0268769
0.0333853
0.0119784
0.0218265
0.0292222
0.0282093
0.0267269
0.0242248
0.0196754
0.0197237
0.0177859
0.0172192
0.0146907
0.01656
0.00483992
0.0161204
0.009987
0.0145826
0.0114479
0.0121047
0.0109169
0.0135405
0.00531088
0.00905884
0.0121914
0.0111403
0.013943
0.0139522
0.014527
0.0167117
0.0151856
0.0185638
0.0194723
0.0214678
0.022815
0.0232937
0.0235028
0.0232134
0.023009
0.0229391
0.0210234
0.0210836
0.0212398
0.0214689
0.0219136
0.0215825
0.0211658
0.019401
0.0192722
0.0159923
0.0172206
0.0146438
0.0153401
0.0121932
0.0133684
0.00547766
0.0106141
0.0117411
0.00804391
0.0123378
0.0122167
0.0120833
0.009509
0.012348
0.00938235
0.0111513
0.0124744
0.0169799
0.0161312
0.0195666
0.0192488
0.0212968
0.0241199
0.0268576
0.0282554
0.0251372
0.0213452
0.0248098
0.0309154
0.013311
0.0223333
0.0221308
0.00687569
0.0171861
0.01874
0.0192873
0.0215319
0.0233257
0.020576
0.0257423
0.0221465
0.0120519
0.0182701
0.0194005
0.0148839
0.0138129
0.0181635
0.0208337
0.0345776
0.0226528
0.0299883
0.034483
0.016565
0.0336058
0.0380767
0.03008
0.0460082
0.0506275
0.0323503
0.0578906
0.0457768
0.0317229
0.0585386
0.0348319
0.040751
0.0551792
0.0526784
0.0473513
0.0347471
0.0527282
0.0499032
0.048402
0.0582004
0.0548777
0.0435577
0.0564716
0.0363886
0.031182
0.059314
0.0762239
0.0581496
0.0601532
0.194884
0.0299748
0.0472138
0.213874
0.0360972
0.141201
0.173658
0.0446048
0.0538415
0.0565964
0.0379256
0.0416445
0.052083
0.0458891
0.0147764
0.0333091
0.0418104
0.0563367
0.0498017
0.0423393
0.0301611
0.0429698
0.0308868
0.0411784
0.0551995
0.0407619
0.0523964
0.0257048
0.0424331
0.0498066
0.0507824
0.0364591
0.0384894
0.0382161
0.0470403
0.0432882
0.0488134
0.0288151
0.0350113
0.0315745
0.0422023
0.0426184
0.0366804
0.0362966
0.0365017
0.0457256
0.0553112
0.0304216
0.0245677
0.0583496
0.0245431
0.0349548
0.0295736
0.0415917
0.0522962
0.0494555
0.0475868
0.0404625
0.0475607
0.0333917
0.0276331
0.0950328
0.0917312
0.130964
0.116866
0.0975545
0.199703
0.0191299
0.0453408
0.156945
0.0545802
0.0408689
0.051977
0.0257212
0.250863
0.0554665
0.0531037
0.0413296
0.0488099
0.041367
0.0531585
0.0569527
0.0629259
0.0438924
0.0537008
0.0445022
0.0478087
0.0413575
0.0399081
0.0550585
0.0348536
0.0575985
0.0277381
0.034256
0.048095
0.0451417
0.0272584
0.0485906
0.0447721
0.0224472
0.0462794
0.0356291
0.0343245
0.0386883
0.0331035
0.0293679
0.0305022
0.0259234
0.0241422
0.0232052
0.0237671
0.0207087
0.0155953
0.0184365
0.0227294
0.021081
0.0216988
0.0233528
0.0204787
0.0203729
0.0164627
0.00816248
0.0217159
0.0220425
0.0149706
0.0308994
0.0250776
0.0213519
0.0249425
0.0282107
0.0267393
0.0241728
0.0210161
0.0198165
0.0188973
0.0172834
0.0159454
0.0139217
0.00693936
0.0111958
0.0102014
0.00513702
0.0109545
0.0110384
0.0119149
0.00945138
0.0109443
0.00950593
0.007258
0.0129208
0.0126312
0.015133
0.0148398
0.0171237
0.0161844
0.0191841
0.0194836
0.0211017
0.0216311
0.0218742
0.0215235
0.0212157
0.0211139
0.0210416
0.0195092
0.019679
0.0195789
0.0199581
0.0200717
0.0202285
0.019949
0.0190827
0.0185682
0.0168522
0.0164175
0.0154332
0.0140446
0.013761
0.0108199
0.0115484
0.00860313
0.00855482
0.0115191
0.0098766
0.00627197
0.00937762
0.0116829
0.00823718
0.0133009
0.010138
0.0158831
0.0162673
0.0178072
0.0190129
0.0197385
0.0213467
0.0241386
0.0261716
0.0249493
0.014745
0.0258776
0.0275348
0.0280981
0.0214119
0.0200542
0.0208003
0.0176806
0.019747
0.0227292
0.0231497
0.0261191
0.0268724
0.0293417
0.0328507
0.0329212
0.0344982
0.035864
0.0377072
0.0400031
0.0424092
0.0430268
0.0514154
0.117224
0.054465
0.240519
0.292731
0.192036
0.261722
0.156793
0.186962
0.12637
0.13701
0.101911
0.163081
0.118654
0.131987
0.0653341
0.0728117
0.0809939
0.0621845
0.127952
0.10899
0.089136
0.0662349
0.0614004
0.245017
0.25501
0.215669
0.220616
0.0474479
0.0382418
0.0497894
0.0549704
0.0442719
0.0539004
0.0599992
0.05253
0.056779
0.0632068
0.0425574
0.0573767
0.0513652
0.0337833
0.0591309
0.0278393
0.0494922
0.0454052
0.0450449
0.045688
0.0386314
0.0373431
0.0497106
0.0475568
0.0336721
0.0613938
0.0349318
0.0379486
0.0472918
0.0491626
0.0386215
0.0422728
0.033442
0.0389799
0.0515474
0.0388343
0.0485648
0.0394835
0.0465969
0.0380883
0.0340595
0.0438454
0.05394
0.0298637
0.0342814
0.0428005
0.0305274
0.030929
0.0434131
0.0431223
0.0407391
0.0175249
0.0257021
0.0409486
0.0343472
0.0357827
0.0289712
0.036728
0.0484493
0.049353
0.0399127
0.0427984
0.0321954
0.0474654
0.0366164
0.0546163
0.0448729
0.0377996
0.0557816
0.0324655
0.0577611
0.0552629
0.0587233
0.0403599
0.0569014
0.0448763
0.048162
0.0587604
0.043642
0.0496777
0.0276492
0.0791067
0.0588955
0.0393001
0.045521
0.0403881
0.0505159
0.0342712
0.0378192
0.0367039
0.114465
0.112822
0.106091
0.191724
0.0845536
0.0522482
0.0478379
0.102774
0.0499584
0.0781717
0.0371381
0.123174
0.0564817
0.155852
0.11766
0.252763
0.0645846
0.185874
0.0632259
0.0569852
0.049359
0.0530509
0.0474876
0.0492426
0.0382984
0.0388243
0.0410235
0.0370649
0.0338039
0.0347137
0.0332041
0.0325012
0.0299019
0.0270254
0.0264494
0.024161
0.022312
0.0203924
0.0183339
0.0212567
0.0205584
0.0211545
0.0282053
0.0280155
0.0262904
0.0141626
0.0250666
0.026169
0.0243754
0.0211942
0.0200575
0.018904
0.0179652
0.0160753
0.0159292
0.0104477
0.0128539
0.00771465
0.0111388
0.00834989
0.00817891
0.00744019
0.0108304
0.00546914
0.00675316
0.01103
0.0112905
0.0135641
0.0142305
0.0153039
0.0165128
0.016771
0.0186297
0.0190334
0.0199994
0.0201869
0.0201301
0.0199148
0.0196522
0.0196178
0.0196051
0.0184933
0.0185086
0.0186173
0.0186359
0.0190064
0.0188222
0.0192128
0.0182583
0.0183667
0.0162879
0.0164708
0.0146427
0.0146327
0.01214
0.0123506
0.00533722
0.00929153
0.0102934
0.00551647
0.00960716
0.0108504
0.011035
0.00644329
0.0119318
0.0117466
0.0145028
0.0152821
0.0173223
0.0170329
0.0193554
0.0193999
0.0217243
0.0244774
0.0254686
0.0198968
0.0217888
0.0269928
0.0241168
0.0217254
0.0255644
0.0160536
0.0170066
0.0143963
0.0136193
0.0177953
0.0185397
0.0190899
0.0192169
0.0269448
0.0184774
0.0241333
0.0184881
0.0281136
0.0400071
0.0295405
0.0429692
0.0171248
0.0402566
0.0538518
0.0478781
0.0400749
0.0390834
0.0589836
0.0196544
0.0484881
0.0456185
0.0546432
0.0319572
0.0494178
0.0457816
0.0352953
0.0481744
0.0537152
0.0570647
0.0561076
0.0564502
0.0537962
0.0413739
0.0404591
0.0307853
0.0519801
0.0291328
0.041547
0.0551165
0.039774
0.046955
0.0577407
0.0609094
0.053364
0.252991
0.106942
0.0472026
0.215297
0.0699152
0.052107
0.11007
0.0499313
0.0275847
0.0448955
0.0590701
0.0560637
0.0430021
0.0236
0.0477416
0.0563319
0.0499542
0.0394503
0.0498934
0.0485522
0.0492721
0.0490185
0.0529505
0.0438849
0.0583812
0.0988859
0.0416601
0.0256267
0.0407508
0.0303158
0.0385166
0.0535673
0.0424885
0.0251478
0.0391326
0.0369571
0.0384432
0.0427974
0.0479317
0.0382217
0.0517635
0.0441974
0.0388294
0.0212316
0.036404
0.0411493
0.0269119
0.0356954
0.0426795
0.0467915
0.0394977
0.0445605
0.045358
0.037337
0.0454584
0.0482556
0.0335092
0.0453516
0.0415422
0.0568508
0.0515264
0.0449369
0.0544076
0.0446341
0.051566
0.04661
0.0478468
0.038583
0.0443032
0.0477052
0.0556279
0.0481306
0.0376977
0.0608664
0.025434
0.054463
0.0405122
0.0370456
0.0606345
0.0461868
0.0404196
0.0494452
0.0505569
0.0368503
0.105256
0.0492269
0.0378346
0.0335624
0.0328443
0.0414786
0.0529836
0.053885
0.0562012
0.0148005
0.045545
0.0468244
0.0282766
0.0452949
0.0595669
0.0419693
0.063734
0.0341863
0.0594696
0.0419642
0.0459446
0.053744
0.0409504
0.0459173
0.0519743
0.0350958
0.0481282
0.0436704
0.0185272
0.035688
0.0254382
0.0121591
0.0165199
0.0231437
0.0239197
0.0188079
0.00957602
0.0140015
0.0180068
0.0160434
0.0104046
0.0181011
0.0169284
0.0252814
0.021657
0.0245986
0.0271308
0.0221027
0.0197863
0.025265
0.024485
0.0215706
0.0197714
0.0188665
0.0177099
0.016808
0.0159433
0.0137577
0.012302
0.0106071
0.0080623
0.0100538
0.0101509
0.00878788
0.00691553
0.00968885
0.00828579
0.00718507
0.0120048
0.0123572
0.0144897
0.0147545
0.0164086
0.0163769
0.0183131
0.0183145
0.0191685
0.0188725
0.018977
0.0186809
0.0185917
0.0185316
0.0184858
0.0174894
0.0176259
0.0175374
0.0177603
0.0178097
0.0179487
0.0180066
0.0176522
0.0175236
0.0163813
0.0157258
0.0148888
0.0136082
0.013079
0.0105193
0.0105037
0.00810383
0.00733823
0.00991425
0.00945465
0.00744056
0.00725737
0.011726
0.0105981
0.0139634
0.0141152
0.016312
0.0166713
0.0175413
0.0187118
0.0195125
0.0215597
0.0238016
0.0221752
0.0167695
0.0254629
0.027292
0.0205549
0.01838
0.0241733
0.0186143
0.0222512
0.0199671
0.0232054
0.027557
0.0298872
0.0303497
0.030822
0.0311694
0.0319707
0.120655
0.158339
0.149387
0.11601
0.174229
0.210197
0.154058
0.175831
0.135182
0.139252
0.154827
0.115548
0.0426799
0.0371351
0.028498
0.0386972
0.034944
0.0473488
0.024143
0.0459784
0.0279244
0.0502094
0.051031
0.0888745
0.118283
0.0922338
0.157076
0.125245
0.11647
0.1419
0.17956
0.0521656
0.0532378
0.0442663
0.0371094
0.0498998
0.0402755
0.0567277
0.0375565
0.0506376
0.0459876
0.041683
0.0567673
0.0449145
0.0517896
0.0598507
0.0468103
0.0119012
0.0551397
0.051869
0.167275
0.0971369
0.0361422
0.0275324
0.0450032
0.0279887
0.0251009
0.053878
0.0540285
0.0532218
0.0505185
0.0490709
0.0183586
0.0489087
0.0532373
0.0427211
0.0405015
0.0355405
0.0502887
0.0306048
0.0317955
0.0473151
0.0310415
0.0282428
0.046164
0.0266766
0.0397972
0.0450642
0.0529056
0.0475835
0.0254465
0.0354645
0.0400924
0.0393998
0.0433858
0.039247
0.0307042
0.033108
0.035582
0.0273103
0.0446712
0.0202445
0.0445338
0.0449326
0.0387765
0.0460524
0.0230636
0.133358
0.0520571
0.0367384
0.0390058
0.0423295
0.0366014
0.10526
0.0592208
0.194353
0.108575
0.122973
0.16009
0.0329747
0.0410034
0.0640799
0.0319263
0.0463135
0.0178678
0.031558
0.0618766
0.0433427
0.0540837
0.0497572
0.0501358
0.0413828
0.0448063
0.0383802
0.0199426
0.0449271
0.0597041
0.0263168
0.0431826
0.036601
0.102994
0.0446031
0.0402664
0.0403841
0.0470528
0.00773079
0.0451271
0.029309
0.0563085
0.0461084
0.139167
0.17581
0.164288
0.218905
0.176228
0.117383
0.053023
0.0568144
0.0552533
0.0251532
0.0657472
0.117014
0.0694681
0.130535
0.131491
0.0386118
0.0531085
0.0329946
0.0252007
0.0282879
0.0261363
0.022934
0.0217093
0.0201516
0.0223172
0.018451
0.0239365
0.0179674
0.0213958
0.0277976
0.0257183
0.0167801
0.0220558
0.023956
0.0214569
0.0198364
0.018576
0.0177482
0.0164687
0.016389
0.0140823
0.0140047
0.0103354
0.0115286
0.00723183
0.00539622
0.00829303
0.00939246
0.00287895
0.00691432
0.010077
0.0108314
0.0128984
0.0137381
0.014782
0.0158081
0.0163194
0.0175716
0.0176125
0.0180582
0.0179118
0.0178639
0.0177121
0.0176037
0.0175673
0.0175664
0.0168049
0.0167984
0.0169129
0.0168409
0.017158
0.0169217
0.017348
0.0167328
0.0171442
0.0156931
0.0156404
0.0141418
0.0139164
0.0117477
0.011586
0.00613208
0.00851056
0.00925904
0.00696478
0.00806644
0.00846802
0.0113372
0.0100986
0.0127857
0.0132894
0.0149999
0.0155041
0.0167968
0.0168363
0.0189023
0.01932
0.0218539
0.0230257
0.0173378
0.0222281
0.025616
0.0234257
0.0180784
0.0158311
0.0215613
0.0169692
0.0156136
0.0199378
0.0206074
0.0244024
0.0294572
0.0318322
0.0275963
0.0365826
0.0198805
0.0370246
0.0433649
0.0678099
0.0473125
0.0618635
0.0491489
0.0462805
0.0466217
0.0686514
0.0419272
0.0435873
0.0640428
0.0350977
0.0480833
0.0359765
0.0315409
0.0420725
0.0283947
0.0423453
0.0509239
0.0430773
0.0235778
0.047048
0.047289
0.0453717
0.0529885
0.0360585
0.0522117
0.0494004
0.0331592
0.0476716
0.0415891
0.0353429
0.0564094
0.0281512
0.0517379
0.230687
0.124959
0.0941473
0.135211
0.0355386
0.0243626
0.0490641
0.0433885
0.0559496
0.0289713
0.0462008
0.0492134
0.0440682
0.0547588
0.0504645
0.0544983
0.0507324
0.035658
0.0549338
0.0397071
0.0306122
0.0933064
0.155434
0.126741
0.0714398
0.0341083
0.0292692
0.0474378
0.0280449
0.0375106
0.0318327
0.0474339
0.0365826
0.0286986
0.0506557
0.0221862
0.0338538
0.03676
0.0340369
0.0443529
0.0166876
0.0552136
0.0381726
0.0308483
0.042333
0.0302698
0.0381878
0.043868
0.0358371
0.0365582
0.0398593
0.0450281
0.0512159
0.0501758
0.0527318
0.0381712
0.0428968
0.0561059
0.0332899
0.0444934
0.0308852
0.112143
0.0577971
0.0371643
0.0490298
0.0369696
0.0472899
0.0565301
0.0511969
0.0544964
0.0563886
0.0410553
0.039312
0.0573581
0.0536743
0.0261894
0.0618752
0.0548884
0.0498153
0.041244
0.0314703
0.0511058
0.0421898
0.0533781
0.0515053
0.0482141
0.0553391
0.0432316
0.0613491
0.133065
0.0403896
0.052257
0.0463457
0.0443621
0.0419074
0.032044
0.0493265
0.0398612
0.0448144
0.0455059
0.072449
0.0523278
0.0385197
0.0517474
0.0253933
0.0547481
0.0424557
0.0506894
0.0573428
0.0481465
0.0529588
0.0426927
0.048029
0.0638939
0.0398516
0.0467321
0.0478459
0.0597414
0.0891669
0.0364723
0.0787239
0.0346479
0.0129864
0.0344859
0.0227044
0.0221767
0.0160361
0.0147148
0.0179865
0.0147467
0.0212428
0.0176211
0.0175039
0.0238154
0.0259018
0.0221773
0.0165847
0.0229777
0.0217095
0.019594
0.0185235
0.0172878
0.0164763
0.0159529
0.0145947
0.0135449
0.0122632
0.0103551
0.0107911
0.00799039
0.00729554
0.00365642
0.00869501
0.00770268
0.00720746
0.0113346
0.0118854
0.0138034
0.0142224
0.0155943
0.0157539
0.0170997
0.0167829
0.0173134
0.0169677
0.0171235
0.0168783
0.016889
0.0168195
0.0167944
0.0160636
0.016166
0.0161032
0.0162403
0.0162671
0.0163444
0.0164324
0.0162036
0.0162934
0.015591
0.0149668
0.0142314
0.013032
0.0124072
0.0102136
0.00992026
0.00708762
0.00702642
0.00862916
0.00857562
0.00928987
0.00972924
0.0120581
0.0120468
0.0141161
0.0143868
0.0157558
0.0162101
0.0169999
0.0182739
0.0190971
0.0212557
0.0201611
0.0167367
0.0250342
0.0255752
0.0196753
0.0172856
0.011676
0.0235618
0.0167174
0.0244282
0.024341
0.0314976
0.0354043
0.0339791
0.0908638
0.0888796
0.113911
0.0919441
0.0904311
0.0864344
0.051829
0.00802082
0.0420028
0.0371742
0.0528868
0.0450817
0.0348093
0.0647315
0.04579
0.0389671
0.0414233
0.0419184
0.0267336
0.0197686
0.0378091
0.0404061
0.0118671
0.0412855
0.0335188
0.0355394
0.0371638
0.0275445
0.0329158
0.0393225
0.0500641
0.0410144
0.0424903
0.0420734
0.0306335
0.0595623
0.0563556
0.0419526
0.0422277
0.0545881
0.0533188
0.0457559
0.0532787
0.0447097
0.0557576
0.0481983
0.0492801
0.0532934
0.0490452
0.203297
0.0927925
0.136775
0.0942658
0.0428861
0.0443401
0.0304646
0.0281453
0.0411197
0.0449646
0.036207
0.0477324
0.0488558
0.0578878
0.0547498
0.0170526
0.0546087
0.0437484
0.0366445
0.0539282
0.0428866
0.0498418
0.0456478
0.0509774
0.0365628
0.044404
0.0332252
0.0232927
0.037784
0.0424496
0.0356313
0.0382964
0.0509777
0.0491197
0.0484855
0.0346383
0.0393245
0.0443746
0.0422102
0.0341251
0.0489838
0.0339125
0.0290198
0.0366612
0.0506189
0.03419
0.0445418
0.0474581
0.019565
0.0447324
0.0530136
0.035934
0.113763
0.050807
0.0473381
0.0525273
0.0441696
0.0456118
0.0585479
0.0526892
0.0506413
0.0383769
0.0624987
0.0273463
0.0520881
0.0377747
0.112387
0.0345443
0.0415414
0.0404977
0.0369907
0.044676
0.0193653
0.180906
0.156553
0.129763
0.226554
0.0398331
0.0521894
0.0480484
0.0527749
0.0375861
0.0363805
0.0458255
0.0438964
0.0362743
0.0258242
0.0444445
0.0389551
0.0425581
0.0443127
0.0411781
0.026916
0.0512756
0.0253385
0.0487311
0.0314959
0.104122
0.116397
0.119069
0.155893
0.123255
0.12227
0.135288
0.0689417
0.0861367
0.0714901
0.048961
0.0472105
0.0699457
0.0652505
0.0316966
0.0662822
0.129659
0.0579035
0.0412347
0.0334755
0.0309357
0.0216777
0.0242225
0.0178984
0.0235934
0.0154251
0.0172749
0.0207179
0.0260572
0.0251325
0.0171226
0.0202144
0.0211529
0.0194327
0.0181113
0.0172468
0.0159957
0.015871
0.0142775
0.0142136
0.0118518
0.0120104
0.00969509
0.00813094
0.00770529
0.00806875
0.00500946
0.00580063
0.00958404
0.0104683
0.0122598
0.0131361
0.0141575
0.0150298
0.0155306
0.0163339
0.0161701
0.0164825
0.0163107
0.0163175
0.0161961
0.0161595
0.0161086
0.0161296
0.0155593
0.0155273
0.0156544
0.0155296
0.0158183
0.01555
0.0159671
0.0154167
0.0158965
0.014908
0.0148397
0.013547
0.0132392
0.01129
0.0110453
0.00674788
0.00819288
0.00835539
0.00700761
0.00813845
0.00592616
0.0114663
0.0108399
0.0128762
0.0133127
0.0146403
0.0150415
0.0161836
0.0164736
0.0183465
0.0187219
0.020826
0.0160152
0.0206498
0.0249318
0.0212763
0.0175456
0.0208604
0.0170735
0.0180683
0.0230944
0.0192846
0.0335331
0.0365287
0.025012
0.0438276
0.0653
0.135384
0.0884645
0.077738
0.0492716
0.0382564
0.0361996
0.0381818
0.109256
0.0990534
0.0338925
0.031363
0.107574
0.0213347
0.0517194
0.127614
0.0278033
0.0321453
0.0357873
0.0462055
0.0255656
0.0397669
0.05217
0.0449867
0.0498528
0.044606
0.0439498
0.0401387
0.0300831
0.0168307
0.0539356
0.020679
0.0436624
0.0540122
0.0368462
0.0403967
0.136254
0.101978
0.116138
0.15753
0.0864516
0.0878949
0.0500372
0.032054
0.0238053
0.0566077
0.0441977
0.0220059
0.0594478
0.0519135
0.0417877
0.0371892
0.0502819
0.0489692
0.0402644
0.0569457
0.0410477
0.163529
0.0831481
0.120066
0.0959435
0.0420843
0.0323134
0.0538394
0.0510714
0.046592
0.0262082
0.0437884
0.0444642
0.0401435
0.0531705
0.0368026
0.0458721
0.0255702
0.0493589
0.0399095
0.0349154
0.022985
0.0449707
0.0396169
0.0223778
0.0505147
0.0200183
0.0238734
0.0418278
0.0409468
0.0238902
0.0468713
0.0309464
0.0408512
0.0419185
0.0411749
0.0474688
0.044018
0.0815675
0.0553368
0.0475837
0.0498217
0.044099
0.046123
0.0482104
0.0315624
0.0541298
0.0529953
0.0616983
0.0428914
0.0400816
0.0532385
0.0465327
0.0511483
0.0488681
0.0524035
0.0398703
0.0516868
0.0487153
0.0544456
0.0535142
0.0450654
0.0400421
0.0398296
0.0648718
0.0577541
0.0469403
0.0384747
0.0448205
0.0534865
0.0407152
0.0365829
0.0549293
0.040953
0.0605075
0.0409306
0.041403
0.0504306
0.0461885
0.0482746
0.0473714
0.0299849
0.0325374
0.0379458
0.0462547
0.0431801
0.0325869
0.0282387
0.0329202
0.0547457
0.0442664
0.0504106
0.0520495
0.0369268
0.0457445
0.0259644
0.0509206
0.0338134
0.0497221
0.0490748
0.0378808
0.0269762
0.03423
0.0425748
0.0480396
0.0431177
0.0567165
0.0751977
0.0520877
0.0396372
0.0404771
0.0353316
0.0196174
0.0168905
0.0202468
0.0138622
0.0212978
0.0171729
0.0219666
0.0248971
0.0210123
0.0158682
0.0205493
0.0189978
0.0179868
0.0167997
0.0159406
0.0154045
0.0143167
0.0135168
0.0126114
0.0110333
0.0111894
0.00605817
0.00748531
0.00580037
0.00776422
0.00755494
0.00743254
0.0108468
0.0114031
0.0131439
0.0136264
0.0147937
0.0149537
0.0158616
0.0154587
0.0159349
0.0155899
0.0157901
0.0155698
0.0156282
0.0155499
0.0155432
0.0149669
0.0150439
0.014998
0.0150876
0.0151044
0.0151443
0.0152242
0.0150449
0.0151261
0.0147486
0.0142103
0.0135823
0.0124704
0.0118399
0.00994173
0.0095292
0.00582408
0.00691237
0.0078928
0.00658837
0.00990309
0.0101746
0.0119309
0.0121214
0.0137235
0.013974
0.0150546
0.0156832
0.0164376
0.0176003
0.0180515
0.0185839
0.0149335
0.0236011
0.0249076
0.0179307
0.0164778
0.0198829
0.0140615
0.0246277
0.0163994
0.0314137
0.0357794
0.0359034
0.0495845
0.0513963
0.0231308
0.0525691
0.0154196
0.0291489
0.0141462
0.0351173
0.0957931
0.0976398
0.0521447
0.0289099
0.0391078
0.041882
0.0346904
0.0456455
0.0495278
0.0487559
0.0492216
0.0475311
0.0319208
0.037417
0.0467917
0.0374967
0.0492127
0.0380106
0.0368488
0.0354147
0.0220662
0.0435383
0.0472461
0.0538219
0.0490766
0.0460912
0.0484252
0.0437619
0.048313
0.0571347
0.0596792
0.0509454
0.0388644
0.056849
0.0293584
0.0505326
0.0185805
0.0475216
0.0393558
0.0465829
0.214989
0.19351
0.0829221
0.109101
0.04245
0.0380639
0.0463573
0.0564101
0.0599243
0.0195979
0.0586889
0.045191
0.0499024
0.0501296
0.0483334
0.0499606
0.0419072
0.0565372
0.0481321
0.118674
0.0679229
0.0390503
0.0521216
0.0369171
0.0264182
0.0413778
0.043449
0.0394131
0.0463185
0.0438175
0.0382825
0.0402252
0.0347573
0.0337069
0.0271514
0.0431098
0.0277524
0.0427378
0.0353377
0.0406611
0.043128
0.0447711