/*--------------------------------*- C++ -*----------------------------------*\
| =========                 |                                                 |
| \\      /  F ield         | OpenFOAM: The Open Source CFD Toolbox           |
|  \\    /   O peration     | Version:  v2006                                 |
|   \\  /    A nd           | Website:  www.openfoam.com                      |
|    \\/     M anipulation  |                                                 |
\*---------------------------------------------------------------------------*/
FoamFile
{
    version     2.0;
    format      ascii;
    class       volScalarField;
    location    "1000";
    object      nut;
}
// * * * * * * * * * * * * * * * * * * * * * * * * * * * * * * * * * * * * * //

dimensions      [0 2 -1 0 0 0 0];


internalField   nonuniform List<scalar> 
65536
(
1.52416e-06
1.53891e-06
1.53994e-06
1.52506e-06
1.65687e-06
1.86534e-06
2.01994e-06
2.11798e-06
2.19195e-06
2.25318e-06
2.29232e-06
2.30269e-06
2.28955e-06
2.2519e-06
2.19129e-06
2.1067e-06
2.00599e-06
1.89095e-06
1.7665e-06
1.63603e-06
1.50328e-06
1.37089e-06
1.24134e-06
1.12037e-06
1.01126e-06
9.19683e-07
8.46257e-07
7.95604e-07
7.61251e-07
7.41466e-07
7.3891e-07
7.43163e-07
7.58948e-07
7.6688e-07
6.92406e-07
3.84044e-07
4.24145e-07
4.77048e-07
6.72477e-07
2.16392e-06
3.40307e-06
4.57785e-06
5.62686e-06
6.56046e-06
7.43315e-06
8.23261e-06
8.93608e-06
9.55604e-06
1.01238e-05
1.06373e-05
1.11009e-05
1.15186e-05
1.18953e-05
1.2245e-05
1.25646e-05
1.28505e-05
1.3116e-05
1.33581e-05
1.35646e-05
1.37584e-05
1.39376e-05
1.40864e-05
1.42352e-05
1.43592e-05
1.44668e-05
1.45631e-05
1.46403e-05
1.46924e-05
1.47341e-05
1.47541e-05
1.47643e-05
1.47702e-05
1.47635e-05
1.47497e-05
1.46881e-05
1.46365e-05
1.45643e-05
1.4489e-05
1.43903e-05
1.42814e-05
1.41655e-05
1.40614e-05
1.39182e-05
1.37545e-05
1.36248e-05
1.34742e-05
1.32519e-05
1.30429e-05
1.28705e-05
1.26524e-05
1.24274e-05
1.22002e-05
1.19322e-05
1.16931e-05
1.14453e-05
1.11334e-05
1.08561e-05
1.05729e-05
1.02715e-05
9.98056e-06
9.64551e-06
9.29472e-06
8.99889e-06
8.69789e-06
8.35596e-06
8.00729e-06
7.67755e-06
7.34398e-06
6.97351e-06
6.57031e-06
6.16647e-06
5.79204e-06
5.43988e-06
5.07072e-06
4.6811e-06
4.29814e-06
3.89699e-06
3.45598e-06
2.99041e-06
2.4761e-06
1.86704e-06
1.17169e-06
5.88247e-07
3.77722e-07
2.30075e-07
6.97731e-08
2.70637e-08
4.15478e-09
3.48257e-09
2.49082e-08
3.39154e-08
1.6077e-07
5.79633e-07
7.92051e-07
9.9041e-07
1.58179e-06
2.2563e-06
2.88215e-06
3.42571e-06
3.88238e-06
4.29911e-06
4.69695e-06
5.05089e-06
5.41042e-06
5.80271e-06
6.19093e-06
6.54779e-06
6.93111e-06
7.34239e-06
7.6876e-06
8.00995e-06
8.36968e-06
8.69753e-06
9.00445e-06
9.34017e-06
9.7041e-06
1.0017e-05
1.0279e-05
1.05875e-05
1.09125e-05
1.1153e-05
1.14058e-05
1.16902e-05
1.19311e-05
1.21613e-05
1.23952e-05
1.26293e-05
1.28582e-05
1.30369e-05
1.32225e-05
1.34068e-05
1.35978e-05
1.37641e-05
1.38908e-05
1.40438e-05
1.41731e-05
1.431e-05
1.43969e-05
1.45064e-05
1.45833e-05
1.46521e-05
1.47069e-05
1.47453e-05
1.47802e-05
1.47856e-05
1.47936e-05
1.47694e-05
1.4741e-05
1.46893e-05
1.46234e-05
1.45452e-05
1.44596e-05
1.43502e-05
1.42388e-05
1.40976e-05
1.39395e-05
1.37698e-05
1.35714e-05
1.33571e-05
1.31236e-05
1.2858e-05
1.25738e-05
1.22626e-05
1.19128e-05
1.15349e-05
1.11194e-05
1.06559e-05
1.01396e-05
9.56876e-06
8.94848e-06
8.24875e-06
7.45283e-06
6.57982e-06
5.64214e-06
4.58718e-06
3.40671e-06
2.16449e-06
6.72181e-07
4.76242e-07
4.24943e-07
3.85331e-07
6.94981e-07
7.70975e-07
7.65126e-07
7.51463e-07
7.49162e-07
7.52945e-07
7.73178e-07
8.07223e-07
8.57333e-07
9.29967e-07
1.02064e-06
1.12877e-06
1.24879e-06
1.37742e-06
1.50891e-06
1.64102e-06
1.77099e-06
1.89515e-06
2.00991e-06
2.11052e-06
2.19512e-06
2.25592e-06
2.29377e-06
2.30722e-06
2.29721e-06
2.25861e-06
2.19773e-06
2.12388e-06
2.02648e-06
1.87277e-06
1.66451e-06
1.52601e-06
1.54049e-06
1.53938e-06
1.5248e-06
7.95294e-06
7.91885e-06
7.83913e-06
7.71881e-06
7.54516e-06
7.32754e-06
7.06623e-06
6.78126e-06
6.54057e-06
6.30861e-06
6.0549e-06
5.77718e-06
5.47796e-06
5.16114e-06
4.83239e-06
4.49029e-06
4.15516e-06
3.82874e-06
3.51957e-06
3.22775e-06
2.95369e-06
2.69967e-06
2.4696e-06
2.26831e-06
2.10077e-06
1.9721e-06
1.88229e-06
1.83866e-06
1.82936e-06
1.87042e-06
1.97894e-06
2.12729e-06
2.38607e-06
2.74207e-06
3.28375e-06
4.04021e-06
4.75737e-06
5.40432e-06
5.77881e-06
6.37937e-06
7.44242e-06
8.64774e-06
9.59126e-06
1.01516e-05
1.05511e-05
1.08948e-05
1.11802e-05
1.13873e-05
1.15255e-05
1.16601e-05
1.17613e-05
1.18596e-05
1.19275e-05
1.19832e-05
1.20274e-05
1.20601e-05
1.20678e-05
1.20695e-05
1.20507e-05
1.20248e-05
1.20007e-05
1.19714e-05
1.1935e-05
1.18983e-05
1.18366e-05
1.17755e-05
1.16928e-05
1.15716e-05
1.14636e-05
1.13302e-05
1.12262e-05
1.11477e-05
1.10411e-05
1.08968e-05
1.07108e-05
1.0572e-05
1.04015e-05
1.02495e-05
1.00446e-05
9.86569e-06
9.69662e-06
9.54467e-06
9.28845e-06
9.11028e-06
9.00817e-06
8.75404e-06
8.42646e-06
8.26097e-06
8.09846e-06
7.84029e-06
7.62558e-06
7.35025e-06
7.09058e-06
6.90631e-06
6.60689e-06
6.26683e-06
6.04693e-06
5.7707e-06
5.53573e-06
5.23373e-06
4.8403e-06
4.57799e-06
4.40641e-06
4.08856e-06
3.73683e-06
3.4535e-06
3.20943e-06
2.88031e-06
2.46912e-06
2.08323e-06
1.83095e-06
1.63874e-06
1.36275e-06
1.03597e-06
7.91445e-07
5.79516e-07
3.45114e-07
1.841e-07
1.05209e-07
5.12555e-08
2.1409e-08
1.76207e-08
2.83198e-08
5.59578e-08
6.67069e-08
6.44795e-08
8.97438e-08
5.89023e-08
3.69149e-08
6.18552e-08
3.88702e-08
5.13254e-08
4.01928e-08
2.86151e-08
2.31634e-08
2.52721e-08
4.85244e-08
7.95411e-08
1.82747e-07
3.71622e-07
5.44127e-07
8.50966e-07
1.15386e-06
1.36681e-06
1.59946e-06
1.92996e-06
2.21323e-06
2.43626e-06
2.83041e-06
3.26096e-06
3.50396e-06
3.7894e-06
4.13031e-06
4.37504e-06
4.58438e-06
4.95486e-06
5.34822e-06
5.56357e-06
5.75e-06
6.14467e-06
6.42883e-06
6.56848e-06
6.84164e-06
7.12483e-06
7.31229e-06
7.53224e-06
7.76719e-06
8.07444e-06
8.28146e-06
8.44266e-06
8.61969e-06
8.8684e-06
9.13219e-06
9.26733e-06
9.47024e-06
9.65276e-06
9.90867e-06
1.00718e-05
1.02545e-05
1.04405e-05
1.0588e-05
1.07567e-05
1.08766e-05
1.10341e-05
1.11338e-05
1.12785e-05
1.13754e-05
1.15027e-05
1.15869e-05
1.16649e-05
1.17285e-05
1.17985e-05
1.18511e-05
1.19247e-05
1.19686e-05
1.20076e-05
1.20405e-05
1.205e-05
1.20611e-05
1.20528e-05
1.20385e-05
1.20189e-05
1.19829e-05
1.19307e-05
1.18747e-05
1.17844e-05
1.16813e-05
1.15451e-05
1.14049e-05
1.12006e-05
1.09194e-05
1.05751e-05
1.01679e-05
9.60153e-06
8.65027e-06
7.43895e-06
6.38275e-06
5.78117e-06
5.4018e-06
4.75978e-06
4.04449e-06
3.28663e-06
2.74251e-06
2.38593e-06
2.12863e-06
1.98084e-06
1.87413e-06
1.83328e-06
1.84228e-06
1.88565e-06
1.97512e-06
2.10345e-06
2.2706e-06
2.47156e-06
2.70135e-06
2.95483e-06
3.22825e-06
3.51958e-06
3.82857e-06
4.15467e-06
4.48952e-06
4.83153e-06
5.1604e-06
5.47735e-06
5.7768e-06
6.05486e-06
6.30902e-06
6.54143e-06
6.78164e-06
7.06597e-06
7.32736e-06
7.54491e-06
7.71873e-06
7.8391e-06
7.91841e-06
7.95276e-06
1.62978e-05
1.6239e-05
1.6105e-05
1.58919e-05
1.55921e-05
1.52125e-05
1.47466e-05
1.42284e-05
1.37444e-05
1.32588e-05
1.27247e-05
1.21398e-05
1.1511e-05
1.08511e-05
1.01666e-05
9.45675e-06
8.75903e-06
8.08105e-06
7.43856e-06
6.83187e-06
6.26293e-06
5.74618e-06
5.28628e-06
4.89256e-06
4.57581e-06
4.34716e-06
4.2049e-06
4.16124e-06
4.20048e-06
4.37118e-06
4.67081e-06
5.07943e-06
5.64966e-06
6.43014e-06
7.07832e-06
7.54163e-06
8.16077e-06
9.03361e-06
9.91415e-06
1.08558e-05
1.17964e-05
1.25774e-05
1.30991e-05
1.33423e-05
1.34258e-05
1.34221e-05
1.33576e-05
1.32439e-05
1.31089e-05
1.29617e-05
1.27934e-05
1.2623e-05
1.24364e-05
1.22432e-05
1.20408e-05
1.18363e-05
1.16108e-05
1.13721e-05
1.1132e-05
1.09095e-05
1.06982e-05
1.04966e-05
1.02928e-05
1.00689e-05
9.83116e-06
9.58271e-06
9.30113e-06
8.99738e-06
8.73656e-06
8.48155e-06
8.2845e-06
8.08898e-06
7.80088e-06
7.43358e-06
7.10146e-06
6.84649e-06
6.56526e-06
6.27674e-06
5.93986e-06
5.67545e-06
5.40935e-06
5.07203e-06
4.66421e-06
4.49847e-06
4.20184e-06
3.59958e-06
3.20307e-06
3.21987e-06
2.89931e-06
2.44262e-06
2.15057e-06
1.77409e-06
1.56925e-06
1.37436e-06
9.44949e-07
7.13734e-07
6.13691e-07
3.72763e-07
1.91607e-07
2.99469e-08
1.44088e-08
2.20632e-08
2.04946e-08
1.14562e-09
6.0517e-10
5.22297e-10
7.61928e-10
6.51046e-11
2.74617e-11
4.85602e-12
1.25894e-09
1.62805e-09
2.63385e-09
4.37109e-09
9.04039e-09
1.10741e-08
1.90184e-08
1.9613e-08
3.1074e-08
2.07938e-08
1.85409e-08
1.08238e-08
1.46932e-08
2.10056e-08
2.58845e-08
2.23682e-08
4.79285e-08
1.27335e-08
3.99922e-09
4.36077e-08
1.45935e-08
3.24793e-08
4.11893e-08
3.61715e-08
4.56396e-08
7.77892e-08
1.03943e-07
1.31556e-07
9.26843e-08
8.81033e-08
8.65387e-08
8.40198e-08
7.19688e-08
8.44163e-08
7.43159e-08
5.66096e-08
1.02061e-07
1.11374e-07
8.24269e-08
1.13974e-07
1.0893e-07
1.40725e-07
1.96463e-07
2.67559e-07
3.03104e-07
3.17113e-07
5.60507e-07
8.83937e-07
8.74292e-07
1.05232e-06
1.54107e-06
1.63221e-06
1.67985e-06
2.08498e-06
2.28994e-06
2.48847e-06
2.59947e-06
2.96083e-06
3.40297e-06
3.61149e-06
3.80757e-06
4.04913e-06
4.50961e-06
4.74888e-06
4.98946e-06
5.25821e-06
5.61319e-06
5.98605e-06
6.25579e-06
6.6082e-06
6.89131e-06
7.20767e-06
7.47184e-06
7.7747e-06
8.03473e-06
8.31791e-06
8.562e-06
8.8384e-06
9.09572e-06
9.33188e-06
9.54696e-06
9.76283e-06
9.97165e-06
1.02145e-05
1.0463e-05
1.06996e-05
1.0938e-05
1.11609e-05
1.13726e-05
1.15742e-05
1.17801e-05
1.19874e-05
1.22033e-05
1.2418e-05
1.26286e-05
1.28153e-05
1.29944e-05
1.31501e-05
1.32842e-05
1.33897e-05
1.34472e-05
1.34469e-05
1.33566e-05
1.3113e-05
1.25854e-05
1.17938e-05
1.08644e-05
9.92229e-06
9.0281e-06
8.15948e-06
7.54666e-06
7.08285e-06
6.43201e-06
5.64942e-06
5.08029e-06
4.67501e-06
4.37855e-06
4.20931e-06
4.16911e-06
4.21214e-06
4.35357e-06
4.58137e-06
4.89727e-06
5.29024e-06
5.74966e-06
6.26557e-06
6.83339e-06
7.43884e-06
8.08089e-06
8.7583e-06
9.4555e-06
1.01652e-05
1.08498e-05
1.15101e-05
1.21392e-05
1.27247e-05
1.32598e-05
1.37461e-05
1.42294e-05
1.4747e-05
1.5213e-05
1.55926e-05
1.58922e-05
1.61055e-05
1.62388e-05
1.62975e-05
2.58834e-05
2.58009e-05
2.56138e-05
2.53055e-05
2.48676e-05
2.43102e-05
2.36316e-05
2.28723e-05
2.21111e-05
2.13338e-05
2.04892e-05
1.95634e-05
1.85648e-05
1.75196e-05
1.64355e-05
1.53127e-05
1.42033e-05
1.31182e-05
1.20816e-05
1.10966e-05
1.01733e-05
9.33921e-06
8.60052e-06
7.97628e-06
7.48834e-06
7.15618e-06
6.97864e-06
6.98008e-06
7.12621e-06
7.48602e-06
8.03212e-06
8.75694e-06
9.7361e-06
1.02989e-05
1.05722e-05
1.08743e-05
1.14321e-05
1.21945e-05
1.30763e-05
1.4092e-05
1.48474e-05
1.51209e-05
1.50689e-05
1.48592e-05
1.4547e-05
1.41554e-05
1.37271e-05
1.32756e-05
1.28279e-05
1.23803e-05
1.19323e-05
1.1484e-05
1.10425e-05
1.06068e-05
1.01627e-05
9.723e-06
9.26929e-06
8.78407e-06
8.3267e-06
7.92365e-06
7.52151e-06
7.15696e-06
6.78792e-06
6.35903e-06
5.93235e-06
5.47979e-06
4.95916e-06
4.47916e-06
4.09042e-06
3.76631e-06
3.53603e-06
3.20551e-06
2.71094e-06
2.20925e-06
1.91025e-06
1.65105e-06
1.25137e-06
8.09899e-07
5.48501e-07
5.4228e-07
3.71422e-07
8.98838e-08
2.59705e-08
1.30995e-07
5.98029e-08
2.01813e-09
7.27875e-09
9.84672e-08
2.30057e-08
1.46177e-08
6.43346e-09
4.96061e-09
3.25739e-14
1.2798e-08
2.32736e-10
2.79951e-10
1.32162e-09
1.9032e-09
2.83627e-11
2.86736e-11
3.2143e-10
3.45347e-11
4.30755e-10
6.06987e-10
5.03795e-09
1.56297e-09
2.25664e-09
1.04509e-08
5.1315e-09
5.5135e-09
4.97604e-09
8.4941e-10
2.64723e-09
5.5441e-09
4.67934e-09
3.99942e-09
5.05708e-09
5.01197e-09
5.82786e-09
6.37775e-09
2.96438e-09
1.75942e-09
3.35141e-09
1.1758e-09
3.50726e-10
1.45579e-10
2.76987e-09
5.72447e-10
8.75682e-11
6.25683e-09
2.21313e-09
6.55903e-09
2.58443e-08
4.13802e-08
6.32131e-08
7.97765e-08
1.2786e-07
1.2659e-07
1.1017e-07
1.13354e-07
1.69631e-07
1.92276e-07
2.46772e-07
2.53559e-07
2.55299e-07
2.43966e-07
2.70798e-07
2.88205e-07
2.75906e-07
2.80444e-07
2.43269e-07
2.29531e-07
2.87414e-07
2.24472e-07
2.24013e-07
2.44056e-07
1.87869e-07
1.2994e-07
1.47175e-07
1.02824e-07
8.37382e-08
1.25357e-07
4.35966e-08
6.52148e-08
4.17969e-08
5.59907e-08
2.348e-08
1.71785e-08
1.32089e-07
1.43615e-07
7.60494e-08
3.07793e-08
1.75637e-07
3.65141e-07
3.68902e-07
3.8659e-07
4.64471e-07
8.11996e-07
1.01363e-06
1.39658e-06
1.66835e-06
1.97005e-06
2.25144e-06
2.61472e-06
2.98649e-06
3.36664e-06
3.71281e-06
4.10081e-06
4.5636e-06
5.01349e-06
5.4225e-06
5.82805e-06
6.20255e-06
6.61901e-06
7.08009e-06
7.50634e-06
7.95448e-06
8.39929e-06
8.80666e-06
9.22084e-06
9.63894e-06
1.00588e-05
1.05196e-05
1.09981e-05
1.14741e-05
1.19467e-05
1.24197e-05
1.28885e-05
1.33385e-05
1.37706e-05
1.4175e-05
1.45568e-05
1.48632e-05
1.50818e-05
1.51393e-05
1.48527e-05
1.41062e-05
1.3091e-05
1.21875e-05
1.14267e-05
1.08811e-05
1.0581e-05
1.03016e-05
9.73618e-06
8.75718e-06
8.03852e-06
7.49759e-06
7.1413e-06
6.99486e-06
6.99194e-06
7.16785e-06
7.49827e-06
7.9846e-06
8.60725e-06
9.34488e-06
1.01776e-05
1.10995e-05
1.20824e-05
1.31182e-05
1.42026e-05
1.53112e-05
1.64338e-05
1.75182e-05
1.85638e-05
1.9563e-05
2.04897e-05
2.13356e-05
2.21137e-05
2.28741e-05
2.36328e-05
2.43114e-05
2.48687e-05
2.53064e-05
2.5615e-05
2.58014e-05
2.58831e-05
3.63839e-05
3.62748e-05
3.60245e-05
3.56151e-05
3.50443e-05
3.43201e-05
3.3438e-05
3.24372e-05
3.13962e-05
3.03065e-05
2.91186e-05
2.78195e-05
2.64194e-05
2.49549e-05
2.3438e-05
2.18711e-05
2.03203e-05
1.87988e-05
1.73374e-05
1.59434e-05
1.46354e-05
1.34426e-05
1.23909e-05
1.15148e-05
1.08513e-05
1.04267e-05
1.02397e-05
1.03064e-05
1.05995e-05
1.12134e-05
1.20672e-05
1.28912e-05
1.33811e-05
1.34936e-05
1.34358e-05
1.36548e-05
1.43256e-05
1.51523e-05
1.5869e-05
1.644e-05
1.66332e-05
1.63486e-05
1.57603e-05
1.50483e-05
1.42646e-05
1.34438e-05
1.26247e-05
1.18097e-05
1.1017e-05
1.02403e-05
9.47205e-06
8.7009e-06
7.95908e-06
7.2306e-06
6.4879e-06
5.75992e-06
5.02598e-06
4.2631e-06
3.62946e-06
3.19796e-06
2.75917e-06
2.38522e-06
1.98767e-06
1.58424e-06
1.21863e-06
8.88812e-07
3.65008e-07
1.66935e-07
6.212e-08
3.52924e-08
4.10683e-08
1.85882e-08
5.98313e-10
4.18935e-10
5.46976e-11
3.86628e-11
1.25033e-10
2.70742e-12
2.57123e-11
4.75597e-10
2.06672e-13
4.77886e-12
5.06944e-11
1.38489e-12
5.3583e-11
2.74854e-10
7.1258e-11
7.61581e-12
1.58974e-10
1.69623e-12
2.70124e-12
4.45983e-10
2.86447e-10
6.06339e-11
1.10923e-11
9.93912e-11
6.19505e-11
4.14722e-10
3.25269e-10
1.49321e-09
2.72165e-10
1.50726e-09
3.89842e-09
3.2803e-09
8.62753e-09
1.34314e-08
9.58844e-09
1.20323e-08
3.19737e-08
2.12934e-08
8.33346e-09
1.02364e-08
1.5503e-08
1.20613e-08
1.50518e-08
1.30018e-08
1.78828e-08
1.8885e-08
1.38685e-08
1.29471e-08
1.73982e-08
9.27567e-09
1.58486e-08
5.18094e-09
1.08802e-09
9.53646e-12
2.07316e-09
1.78991e-10
9.94922e-11
2.17497e-09
4.41734e-09
2.54885e-08
7.73266e-08
1.23752e-07
1.44735e-07
1.46794e-07
2.09704e-07
2.47552e-07
2.33243e-07
2.76379e-07
2.82984e-07
2.97217e-07
3.24703e-07
3.49928e-07
2.84228e-07
3.16306e-07
2.30474e-07
2.29854e-07
2.2116e-07
2.11134e-07
1.8423e-07
2.04744e-07
1.98835e-07
2.10488e-07
9.46681e-08
6.90909e-08
9.78696e-08
1.0771e-07
6.06468e-08
6.94981e-08
7.40447e-08
8.42574e-08
7.87441e-08
2.46687e-08
2.46737e-08
6.10822e-08
5.10747e-08
2.0326e-08
3.28319e-08
2.54608e-08
2.41401e-08
3.71685e-08
1.91009e-08
7.73227e-09
1.16345e-08
1.33183e-08
8.39456e-09
2.1077e-08
6.69335e-09
5.55518e-09
1.07975e-08
6.99969e-09
1.18116e-08
2.27757e-08
3.26521e-08
7.64532e-08
1.34855e-07
1.70547e-07
4.14779e-07
7.0279e-07
1.02745e-06
1.3672e-06
1.55235e-06
1.85652e-06
2.35152e-06
2.81208e-06
3.36612e-06
3.96887e-06
4.5315e-06
5.12766e-06
5.73821e-06
6.36654e-06
7.10072e-06
7.89272e-06
8.67982e-06
9.48256e-06
1.02926e-05
1.11051e-05
1.1903e-05
1.26867e-05
1.34585e-05
1.42549e-05
1.50275e-05
1.57559e-05
1.63706e-05
1.66494e-05
1.64619e-05
1.58918e-05
1.51468e-05
1.43152e-05
1.36596e-05
1.34463e-05
1.34974e-05
1.33818e-05
1.28933e-05
1.20754e-05
1.12293e-05
1.06215e-05
1.03285e-05
1.026e-05
1.04453e-05
1.08671e-05
1.15279e-05
1.24013e-05
1.34512e-05
1.46418e-05
1.59474e-05
1.73389e-05
1.87989e-05
2.03194e-05
2.18693e-05
2.3436e-05
2.49532e-05
2.64182e-05
2.7819e-05
2.91193e-05
3.03089e-05
3.13996e-05
3.24399e-05
3.34401e-05
3.43222e-05
3.50462e-05
3.56167e-05
3.60262e-05
3.62758e-05
3.63839e-05
4.75985e-05
4.74621e-05
4.71535e-05
4.66542e-05
4.596e-05
4.50751e-05
4.39901e-05
4.27429e-05
4.14102e-05
3.99897e-05
3.8439e-05
3.67425e-05
3.49148e-05
3.30053e-05
3.1031e-05
2.89975e-05
2.69803e-05
2.49956e-05
2.308e-05
2.12484e-05
1.95312e-05
1.79659e-05
1.65921e-05
1.54578e-05
1.46197e-05
1.41118e-05
1.39312e-05
1.41023e-05
1.45985e-05
1.55247e-05
1.62911e-05
1.66454e-05
1.66288e-05
1.63615e-05
1.60891e-05
1.62105e-05
1.67897e-05
1.74683e-05
1.79579e-05
1.80547e-05
1.75052e-05
1.65094e-05
1.53573e-05
1.41159e-05
1.2821e-05
1.1525e-05
1.02509e-05
8.99864e-06
7.80214e-06
6.65526e-06
5.5848e-06
4.57897e-06
3.7451e-06
3.01487e-06
2.39954e-06
1.80461e-06
1.25895e-06
6.49879e-07
3.72742e-07
2.8354e-07
1.51681e-07
6.89977e-08
8.56275e-08
3.07144e-08
4.18005e-08
2.6244e-08
1.11746e-08
6.14942e-09
8.25495e-09
1.24921e-09
7.69873e-09
5.55677e-09
3.97731e-09
8.72367e-09
3.73618e-09
1.24509e-09
6.57541e-09
1.23459e-09
1.74019e-09
2.37393e-09
7.37743e-10
1.63297e-09
4.54561e-09
5.0338e-10
3.33013e-09
2.36248e-09
1.94648e-10
2.28319e-11
1.24006e-09
2.20063e-10
2.35748e-10
4.25136e-10
6.98287e-10
2.63624e-10
7.57798e-10
1.50707e-10
9.43747e-11
5.65877e-11
7.7224e-10
4.63348e-10
1.44752e-09
6.14379e-10
5.81184e-10
2.30221e-09
1.08027e-08
1.04355e-08
6.01974e-09
9.04691e-09
2.84858e-08
1.34008e-08
1.33077e-08
1.93066e-08
2.52878e-08
2.56522e-08
1.9509e-08
4.03809e-08
3.48017e-08
3.85246e-08
3.62058e-08
2.18794e-08
2.30786e-08
7.96765e-09
1.15692e-08
1.04073e-08
6.45893e-09
2.03407e-12
1.06836e-09
1.51221e-13
6.36152e-17
2.81881e-10
3.25858e-09
4.92246e-08
8.65657e-08
1.0425e-07
1.52255e-07
1.92453e-07
2.59663e-07
3.42754e-07
3.40188e-07
3.06891e-07
3.20755e-07
3.33756e-07
3.39215e-07
2.72616e-07
2.80648e-07
2.55466e-07
1.93983e-07
1.09819e-07
1.11087e-07
1.30414e-07
1.01853e-07
1.12234e-07
1.20735e-07
5.79984e-08
2.6658e-08
3.83201e-08
3.46078e-08
2.371e-08
1.74722e-08
2.39408e-08
1.48627e-08
7.6382e-09
5.52051e-09
5.51983e-09
5.95562e-09
5.28855e-09
1.65379e-09
2.87992e-09
9.58174e-09
5.24507e-09
1.211e-09
3.99306e-09
2.59497e-09
1.94653e-09
7.3502e-09
2.98442e-09
1.15811e-09
6.2269e-09
1.95272e-09
2.64984e-09
6.96455e-09
2.8154e-09
2.19993e-09
6.27307e-09
1.05196e-09
4.37937e-09
7.40464e-09
3.98631e-09
1.19966e-08
1.01237e-08
7.60624e-09
2.6509e-08
1.76965e-08
2.27134e-08
7.61513e-08
1.45433e-07
2.9501e-07
5.93707e-07
8.38111e-07
1.30641e-06
1.75418e-06
2.18065e-06
2.81531e-06
3.64726e-06
4.54492e-06
5.58888e-06
6.72559e-06
7.93385e-06
9.14858e-06
1.03585e-05
1.15583e-05
1.28024e-05
1.4068e-05
1.5321e-05
1.65192e-05
1.75271e-05
1.80828e-05
1.79873e-05
1.74661e-05
1.67751e-05
1.62124e-05
1.61019e-05
1.63686e-05
1.66318e-05
1.66499e-05
1.63025e-05
1.55452e-05
1.46276e-05
1.41323e-05
1.3959e-05
1.41373e-05
1.4641e-05
1.54753e-05
1.6606e-05
1.79771e-05
1.95396e-05
2.12536e-05
2.30821e-05
2.49958e-05
2.69792e-05
2.89954e-05
3.10287e-05
3.30034e-05
3.49135e-05
3.67421e-05
3.844e-05
3.99925e-05
4.14143e-05
4.27466e-05
4.39934e-05
4.50785e-05
4.59631e-05
4.66568e-05
4.7156e-05
4.74637e-05
4.75988e-05
5.93933e-05
5.92328e-05
5.88705e-05
5.82848e-05
5.74689e-05
5.64218e-05
5.51363e-05
5.36465e-05
5.20216e-05
5.02638e-05
4.83384e-05
4.62308e-05
4.39567e-05
4.1581e-05
3.91304e-05
3.66121e-05
3.41064e-05
3.16338e-05
2.92392e-05
2.69478e-05
2.48026e-05
2.28512e-05
2.11497e-05
1.9762e-05
1.8762e-05
1.81905e-05
1.80458e-05
1.83668e-05
1.90907e-05
1.98592e-05
2.01472e-05
1.99663e-05
1.9449e-05
1.88092e-05
1.84015e-05
1.85589e-05
1.90646e-05
1.93941e-05
1.93325e-05
1.87259e-05
1.74016e-05
1.57249e-05
1.39753e-05
1.21367e-05
1.02623e-05
8.40896e-06
6.67169e-06
5.17675e-06
3.88963e-06
2.91503e-06
2.04876e-06
1.37196e-06
8.26903e-07
5.46093e-07
3.06268e-07
1.90433e-07
7.90135e-08
4.20306e-08
3.69842e-08
4.67303e-08
2.03502e-08
2.50288e-08
2.35353e-08
1.98122e-08
1.77799e-08
4.21179e-08
1.84472e-08
4.50315e-08
2.46376e-08
1.32379e-08
1.56869e-08
1.0755e-08
1.04939e-08
2.42612e-08
1.61267e-08
1.47109e-08
1.96464e-08
7.28914e-09
7.7389e-09
8.62462e-09
3.05966e-09
3.73639e-09
3.84784e-09
1.24013e-09
3.4012e-09
1.15068e-08
2.66764e-09
1.69129e-09
1.29083e-09
1.5515e-09
7.51424e-10
1.26005e-09
7.21399e-10
9.73063e-10
1.296e-09
5.03137e-10
9.15851e-11
7.1182e-11
1.09514e-10
1.95267e-10
4.0228e-10
1.21726e-09
5.42274e-10
2.08294e-10
3.36023e-09
6.91147e-09
2.39647e-09
4.10482e-09
9.38663e-09
1.11154e-08
1.09846e-08
2.84158e-08
4.11754e-08
3.02457e-08
4.17869e-08
4.84433e-08
3.41324e-08
5.84193e-08
1.11302e-07
6.07938e-08
6.98271e-08
5.30848e-08
3.12186e-08
2.8293e-08
3.30772e-08
8.2127e-10
2.79495e-09
7.03366e-14
4.38179e-14
1.82884e-09
1.96835e-08
1.10274e-07
9.03095e-08
1.42353e-07
2.56803e-07
3.03332e-07
2.82727e-07
3.62244e-07
2.70265e-07
2.57975e-07
3.12379e-07
3.16199e-07
2.84629e-07
1.95355e-07
1.32798e-07
1.51399e-07
7.57344e-08
3.43382e-08
5.53523e-08
4.39878e-08
2.07407e-08
2.80253e-08
3.11853e-08
7.91815e-09
2.33073e-09
6.65059e-09
6.89732e-09
1.75222e-09
1.04536e-09
2.16745e-09
1.75685e-09
1.23579e-09
1.10121e-09
7.46447e-10
1.76009e-09
3.04287e-09
4.3299e-09
6.09009e-09
3.1461e-09
2.45636e-09
3.64793e-09
9.50331e-09
5.29735e-09
2.75709e-09
5.35261e-09
4.45976e-09
4.30655e-09
1.49948e-08
1.06429e-08
7.18844e-09
1.52088e-08
4.77142e-09
1.31269e-08
1.36381e-08
1.15931e-08
1.39721e-08
1.56076e-08
1.09892e-08
1.26378e-08
1.31832e-08
7.41215e-09
1.42351e-08
1.34104e-08
1.03087e-08
2.0058e-08
1.5841e-08
2.06863e-08
3.17285e-08
2.5049e-08
4.38283e-08
1.20064e-07
1.59162e-07
2.81818e-07
7.30776e-07
1.32791e-06
2.00472e-06
2.89477e-06
3.99034e-06
5.3451e-06
6.84798e-06
8.50607e-06
1.02829e-05
1.21045e-05
1.3927e-05
1.57225e-05
1.74275e-05
1.87613e-05
1.93712e-05
1.94002e-05
1.9049e-05
1.85567e-05
1.84151e-05
1.88191e-05
1.94538e-05
1.99728e-05
2.01615e-05
1.98838e-05
1.91258e-05
1.84049e-05
1.80815e-05
1.82237e-05
1.87898e-05
1.97845e-05
2.11673e-05
2.28653e-05
2.48128e-05
2.69543e-05
2.9242e-05
3.16343e-05
3.41052e-05
3.66099e-05
3.9128e-05
4.15791e-05
4.39554e-05
4.62306e-05
4.83398e-05
5.02673e-05
5.20267e-05
5.36514e-05
5.5141e-05
5.64266e-05
5.74732e-05
5.82886e-05
5.8874e-05
5.92351e-05
5.93941e-05
7.16726e-05
7.14906e-05
7.10768e-05
7.04086e-05
6.94766e-05
6.82747e-05
6.6795e-05
6.50648e-05
6.31461e-05
6.10465e-05
5.87385e-05
5.62088e-05
5.34754e-05
5.06184e-05
4.76763e-05
4.46586e-05
4.1647e-05
3.8667e-05
3.57726e-05
3.3001e-05
3.04102e-05
2.80635e-05
2.60336e-05
2.44018e-05
2.32595e-05
2.2655e-05
2.25871e-05
2.30993e-05
2.37198e-05
2.39322e-05
2.36309e-05
2.29189e-05
2.19735e-05
2.10524e-05
2.05078e-05
2.05577e-05
2.08424e-05
2.07806e-05
2.00662e-05
1.85581e-05
1.63992e-05
1.40741e-05
1.16907e-05
9.21617e-06
6.79693e-06
4.72773e-06
3.22805e-06
2.0353e-06
1.37258e-06
7.35327e-07
4.55213e-07
1.86658e-07
1.14701e-07
9.27806e-08
9.90161e-08
6.94173e-08
7.94357e-08
5.94579e-08
8.17592e-08
7.07857e-08
5.11561e-08
5.62529e-08
5.92839e-08
3.49856e-08
6.40168e-08
4.51529e-08
5.52186e-08
5.36047e-08
5.50851e-08
3.25085e-08
4.33496e-08
2.75105e-08
2.80069e-08
3.65725e-08
2.53792e-08
2.8118e-08
3.53035e-08
2.66954e-08
2.76295e-08
2.76331e-08
1.23427e-08
1.25512e-08
1.1586e-08
3.98984e-09
9.05278e-09
9.39656e-09
9.38851e-09
2.53544e-09
6.09413e-09
3.45315e-09
5.9373e-09
3.53295e-09
2.31673e-09
1.08829e-09
2.69189e-09
1.96355e-09
7.35354e-10
4.72658e-10
4.99328e-10
9.77036e-11
4.16844e-10
3.55657e-10
3.45328e-11
7.04991e-12
1.43019e-10
3.4194e-10
4.24622e-10
2.02159e-10
2.33875e-09
3.16365e-09
4.80572e-09
1.50541e-08
1.60927e-08
2.69807e-08
3.54541e-08
4.37732e-08
2.7843e-08
3.14132e-08
7.82988e-08
6.03641e-08
3.91911e-08
9.3721e-08
6.24176e-08
3.25307e-08
5.06406e-08
1.61748e-09
1.48898e-09
1.12045e-15
1.01737e-10
1.73621e-08
4.94721e-08
1.40299e-07
1.17484e-07
1.86465e-07
2.50552e-07
2.15448e-07
1.55114e-07
2.04974e-07
1.00231e-07
2.05303e-07
2.3347e-07
1.92216e-07
1.16254e-07
5.33717e-08
5.36551e-08
3.23542e-08
2.01631e-08
1.25429e-08
9.5538e-09
4.94799e-09
1.87267e-09
4.03504e-09
1.68987e-09
2.07479e-10
8.07871e-10
4.91606e-09
1.31701e-09
6.21423e-10
1.86475e-09
3.96073e-09
6.95102e-10
2.11943e-09
5.41806e-09
9.42495e-09
1.25559e-08
1.27927e-08
1.60999e-08
1.63534e-08
2.04881e-08
1.34763e-08
2.28788e-08
2.05528e-08
2.0343e-08
2.21647e-08
3.57398e-08
3.47377e-08
3.13261e-08
3.73955e-08
3.67787e-08
2.66686e-08
3.81543e-08
3.15709e-08
2.32508e-08
3.59446e-08
2.22562e-08
3.12648e-08
3.93754e-08
2.32895e-08
3.48697e-08
2.38784e-08
2.58846e-08
3.1361e-08
3.38303e-08
2.96741e-08
3.95235e-08
2.23018e-08
2.9065e-08
2.76468e-08
2.11353e-08
2.14883e-08
4.06799e-08
3.21975e-08
3.69086e-08
4.86181e-08
1.703e-07
3.34158e-07
6.41807e-07
1.26796e-06
2.13112e-06
3.34726e-06
4.81094e-06
6.82172e-06
9.17828e-06
1.16365e-05
1.40662e-05
1.64313e-05
1.86069e-05
2.01165e-05
2.07932e-05
2.08265e-05
2.05521e-05
2.05215e-05
2.10657e-05
2.19815e-05
2.29278e-05
2.36474e-05
2.39592e-05
2.37586e-05
2.3146e-05
2.2631e-05
2.26966e-05
2.32944e-05
2.44298e-05
2.60553e-05
2.80806e-05
3.04226e-05
3.30089e-05
3.57762e-05
3.86677e-05
4.16459e-05
4.46564e-05
4.7674e-05
5.06167e-05
5.34743e-05
5.62089e-05
5.87406e-05
6.1051e-05
6.31523e-05
6.50712e-05
6.68014e-05
6.82812e-05
6.94826e-05
7.04138e-05
7.10815e-05
7.14937e-05
7.16737e-05
8.43617e-05
8.41593e-05
8.36994e-05
8.29549e-05
8.19101e-05
8.05576e-05
7.88866e-05
7.69194e-05
7.47115e-05
7.22729e-05
6.95804e-05
6.66213e-05
6.34209e-05
6.00717e-05
5.66272e-05
5.3098e-05
4.95649e-05
4.6059e-05
4.26472e-05
3.93801e-05
3.63335e-05
3.35872e-05
3.12326e-05
2.93712e-05
2.8112e-05
2.75085e-05
2.75516e-05
2.7996e-05
2.8095e-05
2.76624e-05
2.67548e-05
2.5507e-05
2.4143e-05
2.30091e-05
2.24341e-05
2.23728e-05
2.22314e-05
2.15148e-05
1.99648e-05
1.75201e-05
1.46017e-05
1.16524e-05
8.62255e-06
5.70198e-06
3.42732e-06
2.08311e-06
1.05086e-06
6.14427e-07
2.2671e-07
2.05137e-07
1.19672e-07
7.357e-08
8.97901e-08
7.71691e-08
9.87657e-08
9.0286e-08
9.21727e-08
9.42848e-08
1.0533e-07
8.77589e-08
9.61331e-08
8.63062e-08
8.68399e-08
6.47564e-08
7.80024e-08
6.44143e-08
5.57565e-08
7.94628e-08
4.82624e-08
6.18718e-08
4.85672e-08
4.02045e-08
4.1885e-08
4.71993e-08
3.8506e-08
4.25695e-08
4.55744e-08
2.93568e-08
4.5122e-08
4.17125e-08
4.5975e-08
4.19598e-08
4.87165e-08
2.28262e-08
3.50385e-08
4.04233e-08
3.75431e-08
2.69023e-08
1.88488e-08
1.45954e-08
1.4314e-08
1.4321e-08
1.11415e-08
6.95239e-09
9.10778e-09
8.12024e-09
2.67853e-09
7.29721e-09
4.95708e-09
3.39181e-09
1.5032e-09
3.03975e-09
5.16516e-10
2.89173e-10
3.54018e-10
4.45191e-10
7.81736e-10
3.71586e-10
3.58146e-09
7.34742e-09
3.13481e-09
7.26832e-09
6.2656e-09
9.25789e-09
2.40921e-08
1.83116e-08
6.86372e-08
3.82118e-08
3.54364e-08
7.33707e-08
5.11092e-08
8.04712e-08
1.08884e-07
3.55492e-08
9.85294e-08
7.13595e-09
5.86329e-10
4.21514e-14
4.4283e-09
4.19633e-08
7.29493e-08
1.56775e-07
1.20591e-07
1.44627e-07
1.58033e-07
1.31181e-07
9.13499e-08
7.2706e-08
9.07671e-08
1.62843e-07
1.08713e-07
7.4491e-08
2.49949e-08
7.93235e-09
2.36735e-08
8.65868e-09
6.29559e-09
7.11751e-09
4.07485e-09
3.46151e-09
6.28828e-10
1.67023e-09
1.03553e-09
8.71074e-10
9.64052e-09
1.80639e-08
8.72461e-09
3.70684e-09
1.4078e-08
1.90767e-08
1.32095e-08
2.4914e-08
3.23213e-08
4.04745e-08
3.21083e-08
5.19032e-08
4.54803e-08
6.1285e-08
3.32071e-08
5.6153e-08
4.34935e-08
7.77271e-08
4.02482e-08
6.89281e-08
5.43376e-08
5.9989e-08
5.69365e-08
5.78519e-08
4.98768e-08
4.07347e-08
4.82347e-08
5.12431e-08
4.88962e-08
6.83957e-08
5.72647e-08
7.2034e-08
6.31342e-08
5.66337e-08
5.6557e-08
5.91648e-08
5.84264e-08
6.50451e-08
6.03618e-08
6.40293e-08
4.67146e-08
5.83036e-08
4.11506e-08
6.54833e-08
3.68709e-08
5.77792e-08
4.6651e-08
6.58495e-08
3.45958e-08
5.93188e-08
3.71953e-08
1.21006e-07
7.35071e-08
1.85508e-07
4.67892e-07
1.12249e-06
2.06806e-06
3.34995e-06
5.61644e-06
8.5281e-06
1.16151e-05
1.46282e-05
1.75799e-05
2.00309e-05
2.15461e-05
2.22263e-05
2.23667e-05
2.24472e-05
2.30263e-05
2.41546e-05
2.55179e-05
2.6773e-05
2.7691e-05
2.81355e-05
2.8046e-05
2.76032e-05
2.75588e-05
2.81548e-05
2.94055e-05
3.1259e-05
3.36077e-05
3.63482e-05
3.93895e-05
4.26516e-05
4.60602e-05
4.9564e-05
5.30959e-05
5.66252e-05
6.00703e-05
6.34202e-05
6.6622e-05
6.95835e-05
7.22786e-05
7.47192e-05
7.69275e-05
7.88949e-05
8.05659e-05
8.19178e-05
8.29617e-05
8.37053e-05
8.41634e-05
8.43632e-05
9.74048e-05
9.71847e-05
9.66836e-05
9.58662e-05
9.47147e-05
9.32187e-05
9.13634e-05
8.91644e-05
8.66733e-05
8.38981e-05
8.08192e-05
7.74294e-05
7.37564e-05
6.99079e-05
6.59528e-05
6.19004e-05
5.78309e-05
5.37843e-05
4.98401e-05
4.60647e-05
4.25553e-05
3.94099e-05
3.67397e-05
3.46687e-05
3.33237e-05
3.27564e-05
3.2812e-05
3.27407e-05
3.21521e-05
3.10464e-05
2.95405e-05
2.78056e-05
2.60968e-05
2.47671e-05
2.40599e-05
2.37593e-05
2.31325e-05
2.16071e-05
1.90532e-05
1.57172e-05
1.21291e-05
8.59167e-06
5.21441e-06
2.6325e-06
1.43646e-06
6.65999e-07
3.25787e-07
2.03069e-07
1.30458e-07
1.39588e-07
1.41946e-07
1.14575e-07
1.1535e-07
1.33739e-07
1.34931e-07
1.22926e-07
1.38686e-07
1.10922e-07
1.73993e-07
1.07061e-07
1.56815e-07
1.35438e-07
1.26331e-07
1.1219e-07
1.40284e-07
8.83236e-08
1.34497e-07
9.44633e-08
1.2672e-07
9.31619e-08
1.33969e-07
6.90558e-08
1.09975e-07
6.95274e-08
8.48582e-08
5.8615e-08
8.1874e-08
4.08771e-08
6.43623e-08
4.74333e-08
5.34087e-08
5.15184e-08
5.71472e-08
4.77964e-08
5.50031e-08
6.3736e-08
6.84082e-08
5.38934e-08
4.99024e-08
3.59103e-08
3.45451e-08
3.63391e-08
2.68408e-08
2.1604e-08
2.11382e-08
3.32508e-08
9.10948e-09
2.3676e-08
1.95098e-08
1.28116e-08
1.29774e-08
5.78482e-09
5.07763e-09
8.71499e-10
2.12131e-09
8.10372e-10
5.3567e-10
4.81797e-10
1.00864e-09
1.06319e-08
3.00435e-09
6.66792e-09
1.33981e-08
7.47886e-10
1.21656e-08
9.05083e-10
2.17063e-08
6.30289e-08
2.54283e-08
5.16756e-08
5.02745e-08
8.7581e-08
1.42071e-07
4.91341e-08
1.15481e-07
2.60502e-08
9.57384e-10
3.83273e-13
1.8038e-08
4.71692e-08
8.46098e-08
1.22904e-07
7.67458e-08
1.05141e-07
1.05894e-07
7.10256e-08
5.59556e-08
3.29825e-08
1.30011e-07
5.35955e-08
2.20308e-08
1.52974e-08
1.95129e-09
6.06598e-09
1.19104e-08
2.96294e-09