/*--------------------------------*- C++ -*----------------------------------*\
| =========                 |                                                 |
| \\      /  F ield         | OpenFOAM: The Open Source CFD Toolbox           |
|  \\    /   O peration     | Version:  v2006                                 |
|   \\  /    A nd           | Website:  www.openfoam.com                      |
|    \\/     M anipulation  |                                                 |
\*---------------------------------------------------------------------------*/
FoamFile
{
    version     2.0;
    format      ascii;
    class       volScalarField;
    location    "1000";
    object      nuTilda;
}
// * * * * * * * * * * * * * * * * * * * * * * * * * * * * * * * * * * * * * //

dimensions      [0 2 -1 0 0 0 0];


internalField   nonuniform List<scalar> 
65536
(
1.7081e-06
1.72061e-06
1.72148e-06
1.70887e-06
1.8217e-06
2.00461e-06
2.14334e-06
2.23249e-06
2.30029e-06
2.35674e-06
2.39297e-06
2.4026e-06
2.39041e-06
2.35558e-06
2.29971e-06
2.22224e-06
2.13078e-06
2.0275e-06
1.91733e-06
1.8038e-06
1.69053e-06
1.58005e-06
1.47441e-06
1.37803e-06
1.29286e-06
1.22256e-06
1.16682e-06
1.12863e-06
1.1028e-06
1.08795e-06
1.08603e-06
1.08923e-06
1.10108e-06
1.10704e-06
1.05117e-06
8.13443e-07
8.45919e-07
8.87589e-07
1.03615e-06
2.27458e-06
3.45283e-06
4.60607e-06
5.64571e-06
6.5744e-06
7.44404e-06
8.24151e-06
8.94366e-06
9.56267e-06
1.01297e-05
1.06427e-05
1.11059e-05
1.15232e-05
1.18996e-05
1.2249e-05
1.25684e-05
1.28543e-05
1.31196e-05
1.33616e-05
1.3568e-05
1.37616e-05
1.39407e-05
1.40895e-05
1.42382e-05
1.43621e-05
1.44698e-05
1.4566e-05
1.46432e-05
1.46952e-05
1.4737e-05
1.47569e-05
1.47671e-05
1.4773e-05
1.47663e-05
1.47525e-05
1.4691e-05
1.46394e-05
1.45672e-05
1.44919e-05
1.43932e-05
1.42844e-05
1.41685e-05
1.40645e-05
1.39214e-05
1.37578e-05
1.36281e-05
1.34776e-05
1.32554e-05
1.30464e-05
1.28741e-05
1.26561e-05
1.24313e-05
1.22043e-05
1.19364e-05
1.16975e-05
1.14499e-05
1.11383e-05
1.08612e-05
1.05782e-05
1.02772e-05
9.98655e-06
9.65191e-06
9.30159e-06
9.00622e-06
8.70573e-06
8.36445e-06
8.01651e-06
7.68757e-06
7.35491e-06
6.98561e-06
6.58392e-06
6.18189e-06
5.80947e-06
5.4596e-06
5.09335e-06
4.70753e-06
4.32933e-06
3.93462e-06
3.50323e-06
3.0522e-06
2.56253e-06
2.00336e-06
1.41456e-06
9.68374e-07
8.04049e-07
6.72936e-07
4.68289e-07
3.61906e-07
2.23221e-07
2.13499e-07
3.54127e-07
3.84397e-07
5.99268e-07
9.61954e-07
1.1216e-06
1.27261e-06
1.75403e-06
2.3575e-06
2.94826e-06
3.4738e-06
3.92031e-06
4.3303e-06
4.72324e-06
5.0737e-06
5.43036e-06
5.82009e-06
6.20625e-06
6.5615e-06
6.94337e-06
7.35334e-06
7.69761e-06
8.01917e-06
8.37814e-06
8.70538e-06
9.01178e-06
9.34698e-06
9.71043e-06
1.00229e-05
1.02846e-05
1.05928e-05
1.09175e-05
1.11578e-05
1.14104e-05
1.16946e-05
1.19353e-05
1.21654e-05
1.23991e-05
1.26331e-05
1.28619e-05
1.30405e-05
1.3226e-05
1.34102e-05
1.36011e-05
1.37673e-05
1.3894e-05
1.40469e-05
1.41761e-05
1.4313e-05
1.43998e-05
1.45093e-05
1.45862e-05
1.46549e-05
1.47097e-05
1.47481e-05
1.4783e-05
1.47884e-05
1.47964e-05
1.47722e-05
1.47439e-05
1.46922e-05
1.46263e-05
1.45482e-05
1.44625e-05
1.43531e-05
1.42418e-05
1.41007e-05
1.39426e-05
1.3773e-05
1.35747e-05
1.33605e-05
1.31272e-05
1.28617e-05
1.25776e-05
1.22667e-05
1.19171e-05
1.15395e-05
1.11244e-05
1.06612e-05
1.01455e-05
9.57538e-06
8.95603e-06
8.25763e-06
7.46367e-06
6.59368e-06
5.6609e-06
4.6153e-06
3.45641e-06
2.27516e-06
1.03606e-06
8.87028e-07
8.46564e-07
8.14514e-07
1.05311e-06
1.11012e-06
1.10573e-06
1.09546e-06
1.09374e-06
1.09657e-06
1.11177e-06
1.13738e-06
1.1752e-06
1.23041e-06
1.30013e-06
1.38466e-06
1.48043e-06
1.58544e-06
1.6953e-06
1.80811e-06
1.92128e-06
2.03125e-06
2.13433e-06
2.22573e-06
2.30324e-06
2.3593e-06
2.39433e-06
2.4068e-06
2.39751e-06
2.36176e-06
2.30561e-06
2.23788e-06
2.14926e-06
2.01123e-06
1.82831e-06
1.70967e-06
1.72195e-06
1.721e-06
1.70864e-06
7.96242e-06
7.92841e-06
7.84889e-06
7.72886e-06
7.55569e-06
7.33869e-06
7.07822e-06
6.79426e-06
6.55454e-06
6.32362e-06
6.07118e-06
5.79505e-06
5.49779e-06
5.18344e-06
4.85775e-06
4.51956e-06
4.18917e-06
3.86854e-06
3.56627e-06
3.28266e-06
3.01833e-06
2.77564e-06
2.55835e-06
2.37075e-06
2.2168e-06
2.1002e-06
2.01975e-06
1.98098e-06
1.97274e-06
2.00919e-06
2.10636e-06
2.24102e-06
2.48019e-06
2.81596e-06
3.33693e-06
4.0761e-06
4.78352e-06
5.42468e-06
5.79666e-06
6.39405e-06
7.45324e-06
8.65577e-06
9.59779e-06
1.01574e-05
1.05565e-05
1.08998e-05
1.11851e-05
1.1392e-05
1.153e-05
1.16645e-05
1.17657e-05
1.1864e-05
1.19318e-05
1.19874e-05
1.20316e-05
1.20643e-05
1.2072e-05
1.20736e-05
1.20549e-05
1.2029e-05
1.20049e-05
1.19757e-05
1.19393e-05
1.19026e-05
1.1841e-05
1.17799e-05
1.16972e-05
1.15762e-05
1.14683e-05
1.1335e-05
1.12311e-05
1.11526e-05
1.10461e-05
1.0902e-05
1.07161e-05
1.05774e-05
1.04071e-05
1.02553e-05
1.00507e-05
9.87192e-06
9.70307e-06
9.55131e-06
9.29546e-06
9.11755e-06
9.01561e-06
8.76192e-06
8.43494e-06
8.26977e-06
8.10762e-06
7.85005e-06
7.63587e-06
7.36132e-06
7.10245e-06
6.91881e-06
6.62053e-06
6.28195e-06
6.06315e-06
5.78847e-06
5.555e-06
5.25524e-06
4.86532e-06
4.60584e-06
4.43641e-06
4.12322e-06
3.77796e-06
3.50119e-06
3.26409e-06
2.94691e-06
2.55649e-06
2.19899e-06
1.97188e-06
1.80351e-06
1.57033e-06
1.30853e-06
1.12172e-06
9.62346e-07
7.77351e-07
6.25763e-07
5.2717e-07
4.29987e-07
3.40339e-07
3.23402e-07
3.66367e-07
4.40412e-07
4.62466e-07
4.58078e-07
5.03121e-07
4.46646e-07
3.9325e-07
4.52883e-07
3.98781e-07
4.30111e-07
4.02423e-07
3.67428e-07
3.4749e-07
3.55586e-07
4.23661e-07
4.8629e-07
6.24428e-07
7.996e-07
9.35581e-07
1.16688e-06
1.40127e-06
1.57378e-06
1.76984e-06
2.06038e-06
2.31825e-06
2.52567e-06
2.8992e-06
3.31406e-06
3.55041e-06
3.82947e-06
4.16431e-06
4.40548e-06
4.61218e-06
4.97878e-06
5.36887e-06
5.58265e-06
5.76789e-06
6.16042e-06
6.44323e-06
6.58227e-06
6.85441e-06
7.13661e-06
7.32349e-06
7.5428e-06
7.77714e-06
8.08368e-06
8.29024e-06
8.45111e-06
8.62781e-06
8.87608e-06
9.13944e-06
9.27438e-06
9.47699e-06
9.65926e-06
9.91485e-06
1.00778e-05
1.02603e-05
1.04461e-05
1.05935e-05
1.0762e-05
1.08817e-05
1.10391e-05
1.11387e-05
1.12833e-05
1.13802e-05
1.15073e-05
1.15914e-05
1.16694e-05
1.17329e-05
1.18029e-05
1.18554e-05
1.1929e-05
1.19728e-05
1.20118e-05
1.20447e-05
1.20542e-05
1.20653e-05
1.2057e-05
1.20427e-05
1.20231e-05
1.19872e-05
1.19349e-05
1.1879e-05
1.17887e-05
1.16857e-05
1.15496e-05
1.14096e-05
1.12054e-05
1.09244e-05
1.05805e-05
1.01737e-05
9.60805e-06
8.6583e-06
7.44979e-06
6.39743e-06
5.79902e-06
5.42219e-06
4.78591e-06
4.08031e-06
3.33973e-06
2.81639e-06
2.48006e-06
2.24225e-06
2.10807e-06
2.01249e-06
1.97622e-06
1.9842e-06
2.02275e-06
2.10293e-06
2.21926e-06
2.37287e-06
2.56019e-06
2.77724e-06
3.01942e-06
3.28314e-06
3.56628e-06
3.86837e-06
4.1887e-06
4.5188e-06
4.85691e-06
5.18271e-06
5.49719e-06
5.79466e-06
6.07114e-06
6.32403e-06
6.5554e-06
6.79464e-06
7.07796e-06
7.33851e-06
7.55543e-06
7.72878e-06
7.84885e-06
7.92797e-06
7.96224e-06
1.63001e-05
1.62412e-05
1.61073e-05
1.58942e-05
1.55946e-05
1.52151e-05
1.47493e-05
1.42314e-05
1.37476e-05
1.32623e-05
1.27284e-05
1.21439e-05
1.15156e-05
1.08562e-05
1.01724e-05
9.46346e-06
8.76685e-06
8.09023e-06
7.44939e-06
6.84469e-06
6.27816e-06
5.76424e-06
5.30755e-06
4.91732e-06
4.60402e-06
4.37833e-06
4.23814e-06
4.19516e-06
4.23378e-06
4.40202e-06
4.69792e-06
5.10244e-06
5.66833e-06
6.4446e-06
7.09028e-06
7.55217e-06
8.16977e-06
9.04096e-06
9.92026e-06
1.08608e-05
1.18007e-05
1.25812e-05
1.31026e-05
1.33457e-05
1.34292e-05
1.34255e-05
1.3361e-05
1.32474e-05
1.31124e-05
1.29653e-05
1.27971e-05
1.26268e-05
1.24404e-05
1.22472e-05
1.2045e-05
1.18406e-05
1.16153e-05
1.13767e-05
1.11369e-05
1.09146e-05
1.07035e-05
1.05022e-05
1.02986e-05
1.00749e-05
9.83745e-06
9.58933e-06
9.30815e-06
9.00488e-06
8.74451e-06
8.48999e-06
8.29334e-06
8.09825e-06
7.81084e-06
7.44454e-06
7.11345e-06
6.85937e-06
6.57925e-06
6.29204e-06
5.9569e-06
5.69408e-06
5.42982e-06
5.09524e-06
4.69153e-06
4.52775e-06
4.23524e-06
3.64447e-06
3.25881e-06
3.275e-06
2.96621e-06
2.53298e-06
2.26211e-06
1.92367e-06
1.74586e-06
1.58214e-06
1.24091e-06
1.06579e-06
9.90612e-07
8.02688e-07
6.35812e-07
3.73162e-07
3.07944e-07
3.44019e-07
3.37383e-07
1.61769e-07
1.37793e-07
1.32762e-07
1.4592e-07
7.87897e-08
6.34769e-08
4.11501e-08
1.65403e-07
1.76438e-07
1.99173e-07
2.26389e-07
2.72417e-07
2.86961e-07
3.30095e-07
3.32711e-07
3.75607e-07
3.37752e-07
3.27738e-07
2.8504e-07
3.08454e-07
3.38564e-07
3.57682e-07
3.44169e-07
4.21978e-07
2.97187e-07
2.21114e-07
4.11365e-07
3.07944e-07
3.79992e-07
4.05073e-07
3.91123e-07
4.16537e-07
4.8313e-07
5.25338e-07
5.63604e-07
5.08201e-07
5.0089e-07
4.98411e-07
4.94306e-07
4.73055e-07
4.95052e-07
4.77457e-07
4.4249e-07
5.23142e-07
5.3684e-07
4.92013e-07
5.40828e-07
5.33709e-07
5.76561e-07
6.40548e-07
7.10647e-07
7.42827e-07
7.55363e-07
9.50257e-07
1.19378e-06
1.18656e-06
1.32381e-06
1.72176e-06
1.79968e-06
1.84129e-06
2.20214e-06
2.39059e-06
2.57596e-06
2.68061e-06
3.02527e-06
3.45278e-06
3.65605e-06
3.8479e-06
4.08503e-06
4.53878e-06
4.77526e-06
5.01344e-06
5.27985e-06
5.63225e-06
6.00284e-06
6.27119e-06
6.62203e-06
6.90404e-06
7.21932e-06
7.4827e-06
7.78473e-06
8.04413e-06
8.32669e-06
8.57029e-06
8.84618e-06
9.10308e-06
9.33887e-06
9.55363e-06
9.76922e-06
9.97777e-06
1.02203e-05
1.04686e-05
1.0705e-05
1.09431e-05
1.11657e-05
1.13773e-05
1.15788e-05
1.17845e-05
1.19916e-05
1.22074e-05
1.24219e-05
1.26324e-05
1.28189e-05
1.2998e-05
1.31536e-05
1.32876e-05
1.33931e-05
1.34505e-05
1.34503e-05
1.336e-05
1.31165e-05
1.25892e-05
1.17982e-05
1.08695e-05
9.92839e-06
9.03547e-06
8.16849e-06
7.55719e-06
7.09478e-06
6.44646e-06
5.66809e-06
5.1033e-06
4.70207e-06
4.40929e-06
4.24248e-06
4.2029e-06
4.24526e-06
4.38465e-06
4.60952e-06
4.92199e-06
5.31148e-06
5.76769e-06
6.28079e-06
6.84621e-06
7.44967e-06
8.09008e-06
8.76613e-06
9.46222e-06
1.0171e-05
1.08549e-05
1.15146e-05
1.21433e-05
1.27284e-05
1.32632e-05
1.37493e-05
1.42324e-05
1.47497e-05
1.52156e-05
1.55951e-05
1.58946e-05
1.61078e-05
1.6241e-05
1.62998e-05
2.58843e-05
2.58018e-05
2.56147e-05
2.53064e-05
2.48686e-05
2.43112e-05
2.36327e-05
2.28734e-05
2.21123e-05
2.13351e-05
2.04906e-05
1.9565e-05
1.85666e-05
1.75216e-05
1.64378e-05
1.53152e-05
1.42063e-05
1.31217e-05
1.20857e-05
1.11015e-05
1.01791e-05
9.34609e-06
8.60863e-06
7.9857e-06
7.49903e-06
7.16787e-06
6.99093e-06
6.99236e-06
7.138e-06
7.49671e-06
8.04141e-06
8.76477e-06
9.74243e-06
1.03046e-05
1.05776e-05
1.08793e-05
1.14367e-05
1.21986e-05
1.30798e-05
1.4095e-05
1.48501e-05
1.51235e-05
1.50716e-05
1.48619e-05
1.45499e-05
1.41584e-05
1.37303e-05
1.3279e-05
1.28315e-05
1.23842e-05
1.19366e-05
1.14886e-05
1.10475e-05
1.06122e-05
1.01685e-05
9.7294e-06
9.27633e-06
8.79191e-06
8.33542e-06
7.93328e-06
7.53219e-06
7.16875e-06
6.80103e-06
6.37394e-06
5.94946e-06
5.4998e-06
4.98349e-06
4.50883e-06
4.12579e-06
3.80771e-06
3.5827e-06
3.26159e-06
2.78692e-06
2.31701e-06
2.04558e-06
1.81762e-06
1.48355e-06
1.14053e-06
9.4362e-07
9.38809e-07
8.03857e-07
5.06951e-07
3.60611e-07
5.66355e-07
4.5157e-07
1.87279e-07
2.59162e-07
5.19963e-07
3.48871e-07
3.09865e-07
2.50937e-07
2.34822e-07
1.18197e-08
2.9911e-07
1.08681e-07
1.13793e-07
1.67931e-07
1.84031e-07
6.4122e-08
6.42881e-08
1.17665e-07
6.73065e-08
1.26568e-07
1.37925e-07
2.3507e-07
1.74826e-07
1.91736e-07
2.83043e-07
2.35952e-07
2.40232e-07
2.34003e-07
1.49805e-07
1.99414e-07
2.40467e-07
2.30294e-07
2.21289e-07
2.34842e-07
2.34264e-07
2.43369e-07
2.49012e-07
2.04999e-07
1.79681e-07
2.11413e-07
1.6236e-07
1.19847e-07
9.61601e-08
2.01448e-07
1.35496e-07
8.46919e-08
2.47762e-07
1.90403e-07
2.50763e-07
3.57635e-07
4.05565e-07
4.55642e-07
4.86643e-07
5.58737e-07
5.5709e-07
5.34585e-07
5.39192e-07
6.10019e-07
6.3506e-07
6.8995e-07
6.96401e-07
6.98115e-07
6.87391e-07
7.12596e-07
7.28544e-07
7.17714e-07
7.21955e-07
6.87362e-07
6.74214e-07
7.28671e-07
6.69281e-07
6.68997e-07
6.88824e-07
6.31819e-07
5.6332e-07
5.85325e-07
5.25765e-07
4.95446e-07
5.57721e-07
4.13377e-07
4.61901e-07
4.08801e-07
4.42947e-07
3.50684e-07
3.23223e-07
5.67361e-07
5.82169e-07
4.83007e-07
3.77106e-07
6.20197e-07
7.98437e-07
8.01706e-07
8.16379e-07
8.78792e-07
1.1421e-06
1.29586e-06
1.60237e-06
1.83274e-06
2.09925e-06
2.35596e-06
2.69577e-06
3.05038e-06
3.41788e-06
3.7554e-06
4.13604e-06
4.59225e-06
5.03733e-06
5.44294e-06
5.84578e-06
6.21822e-06
6.63279e-06
7.09215e-06
7.51707e-06
7.96405e-06
8.40787e-06
8.81447e-06
9.22796e-06
9.64546e-06
1.00648e-05
1.05251e-05
1.10031e-05
1.14787e-05
1.19509e-05
1.24236e-05
1.28921e-05
1.33419e-05
1.37738e-05
1.4178e-05
1.45596e-05
1.48659e-05
1.50844e-05
1.51419e-05
1.48554e-05
1.41092e-05
1.30945e-05
1.21916e-05
1.14313e-05
1.08861e-05
1.05863e-05
1.03072e-05
9.74252e-06
8.76501e-06
8.0478e-06
7.50825e-06
7.15304e-06
7.00709e-06
7.00418e-06
7.1795e-06
7.50893e-06
7.994e-06
8.61535e-06
9.35175e-06
1.01834e-05
1.11044e-05
1.20866e-05
1.31217e-05
1.42056e-05
1.53137e-05
1.64361e-05
1.75202e-05
1.85655e-05
1.95646e-05
2.04911e-05
2.13369e-05
2.21149e-05
2.28752e-05
2.36339e-05
2.43124e-05
2.48696e-05
2.53073e-05
2.56159e-05
2.58023e-05
2.5884e-05
3.63843e-05
3.62753e-05
3.6025e-05
3.56155e-05
3.50448e-05
3.43206e-05
3.34385e-05
3.24378e-05
3.13968e-05
3.03072e-05
2.91193e-05
2.78202e-05
2.64203e-05
2.49559e-05
2.34391e-05
2.18724e-05
2.03218e-05
1.88005e-05
1.73394e-05
1.59458e-05
1.46382e-05
1.34459e-05
1.23948e-05
1.15194e-05
1.08564e-05
1.04323e-05
1.02454e-05
1.0312e-05
1.06049e-05
1.12181e-05
1.20713e-05
1.28948e-05
1.33845e-05
1.3497e-05
1.34391e-05
1.3658e-05
1.43286e-05
1.51549e-05
1.58714e-05
1.64422e-05
1.66354e-05
1.63509e-05
1.57627e-05
1.50509e-05
1.42676e-05
1.34471e-05
1.26285e-05
1.1814e-05
1.1022e-05
1.0246e-05
9.47875e-06
8.70885e-06
7.96858e-06
7.2421e-06
6.50216e-06
5.77797e-06
5.04959e-06
4.29564e-06
3.67376e-06
3.25418e-06
2.83272e-06
2.47999e-06
2.11508e-06
1.76036e-06
1.45737e-06
1.2005e-06
7.99009e-07
6.10939e-07
4.56998e-07
3.9161e-07
4.07934e-07
3.30595e-07
1.38151e-07
1.26345e-07
7.58904e-08
6.95681e-08
9.3301e-08
3.5776e-08
6.28029e-08
1.30334e-07
1.87982e-08
4.12196e-08
7.43947e-08
3.02346e-08
7.54027e-08
1.13518e-07
8.09506e-08
4.62629e-08
9.89165e-08
3.17733e-08
3.5688e-08
1.28012e-07
1.1453e-07
7.76354e-08
5.07572e-08
8.78073e-08
7.79988e-08
1.25515e-07
1.18072e-07
1.73053e-07
1.1286e-07
1.73345e-07
2.20308e-07
2.10873e-07
2.69642e-07
3.02079e-07
2.76909e-07
2.93526e-07
3.79037e-07
3.40269e-07
2.66861e-07
2.81293e-07
3.13105e-07
2.93388e-07
3.1064e-07
2.99078e-07
3.24866e-07
3.29446e-07
3.03975e-07
2.9862e-07
3.22376e-07
2.73957e-07
3.14554e-07
2.3611e-07
1.59212e-07
4.8632e-08
1.87244e-07
1.01259e-07
8.74404e-08
1.89573e-07
2.26765e-07
3.563e-07
4.8224e-07
5.53115e-07
5.80139e-07
5.82776e-07
6.52812e-07
6.90232e-07
6.76616e-07
7.17327e-07
7.23415e-07
7.3634e-07
7.60285e-07
7.81728e-07
7.24714e-07
7.53218e-07
6.74251e-07
6.73821e-07
6.65508e-07
6.55452e-07
6.27147e-07
6.49106e-07
6.42988e-07
6.55145e-07
5.12604e-07
4.68647e-07
5.17803e-07
5.32612e-07
4.52145e-07
4.6984e-07
4.78349e-07
4.96356e-07
4.87009e-07
3.55013e-07
3.55096e-07
4.53702e-07
4.31903e-07
3.37714e-07
3.83372e-07
3.58433e-07
3.53498e-07
3.96603e-07
3.32562e-07
2.6334e-07
2.9252e-07
3.02945e-07
2.69096e-07
3.41481e-07
2.54026e-07
2.42278e-07
2.87184e-07
2.57033e-07
2.93946e-07
3.4871e-07
3.83612e-07
4.84484e-07
5.72035e-07
6.15157e-07
8.39845e-07
1.0604e-06
1.30676e-06
1.57824e-06
1.73313e-06
1.99771e-06
2.44863e-06
2.88316e-06
3.41723e-06
4.00626e-06
4.56042e-06
5.15038e-06
5.75641e-06
6.38135e-06
7.11264e-06
7.90238e-06
8.68781e-06
9.48925e-06
1.02983e-05
1.111e-05
1.19072e-05
1.26904e-05
1.34619e-05
1.42578e-05
1.50301e-05
1.57583e-05
1.63729e-05
1.66515e-05
1.64641e-05
1.58942e-05
1.51494e-05
1.43182e-05
1.36629e-05
1.34496e-05
1.35007e-05
1.33851e-05
1.28969e-05
1.20795e-05
1.1234e-05
1.06269e-05
1.03342e-05
1.02657e-05
1.04508e-05
1.08722e-05
1.15324e-05
1.24052e-05
1.34545e-05
1.46446e-05
1.59498e-05
1.73409e-05
1.88006e-05
2.03208e-05
2.18705e-05
2.34371e-05
2.49542e-05
2.64191e-05
2.78198e-05
2.912e-05
3.03095e-05
3.14002e-05
3.24405e-05
3.34407e-05
3.43228e-05
3.50467e-05
3.56172e-05
3.60267e-05
3.62762e-05
3.63844e-05
4.75987e-05
4.74624e-05
4.71538e-05
4.66545e-05
4.59603e-05
4.50754e-05
4.39904e-05
4.27432e-05
4.14105e-05
3.999e-05
3.84394e-05
3.67429e-05
3.49153e-05
3.30058e-05
3.10316e-05
2.89982e-05
2.69811e-05
2.49965e-05
2.30811e-05
2.12497e-05
1.95328e-05
1.79677e-05
1.65943e-05
1.54603e-05
1.46225e-05
1.41148e-05
1.39343e-05
1.41053e-05
1.46013e-05
1.55271e-05
1.62934e-05
1.66475e-05
1.6631e-05
1.63638e-05
1.60914e-05
1.62128e-05
1.67918e-05
1.74703e-05
1.79598e-05
1.80565e-05
1.75071e-05
1.65116e-05
1.53598e-05
1.41189e-05
1.28246e-05
1.15295e-05
1.02566e-05
9.00604e-06
7.81197e-06
6.66875e-06
5.60389e-06
4.60716e-06
3.78665e-06
3.07724e-06
2.49295e-06
1.95121e-06
1.48921e-06
1.01996e-06
8.04904e-07
7.28044e-07
5.92667e-07
4.70396e-07
5.00186e-07
3.77272e-07
4.09851e-07
3.61891e-07
2.89734e-07
2.48652e-07
2.68069e-07
1.66197e-07
2.63316e-07
2.42296e-07
2.22579e-07
2.71851e-07
2.19055e-07
1.66008e-07
2.52803e-07
1.65601e-07
1.80517e-07
1.95182e-07
1.45452e-07
1.77586e-07
2.29978e-07
1.32108e-07
2.12478e-07
1.94813e-07
1.04079e-07
6.08676e-08
1.65524e-07
1.07267e-07
1.09121e-07
1.26474e-07
1.43189e-07
1.12146e-07
1.46097e-07
9.74434e-08
8.6659e-08
7.62335e-08
1.46654e-07
1.29e-07
1.71654e-07
1.38358e-07
1.36423e-07
1.92827e-07
2.85647e-07
2.83051e-07
2.45857e-07
2.72798e-07
3.67603e-07
3.01657e-07
3.00994e-07
3.31528e-07
3.55866e-07
3.5717e-07
3.3232e-07
4.03119e-07
3.873e-07
3.97949e-07
3.9129e-07
3.4234e-07
3.47143e-07
2.63506e-07
2.89974e-07
2.82186e-07
2.4973e-07
3.30493e-08
1.58481e-07
1.72555e-08
2.47181e-09
1.13488e-07
2.09941e-07
4.25177e-07
4.98039e-07
5.25657e-07
5.89319e-07
6.34785e-07
7.0163e-07
7.75317e-07
7.73335e-07
7.44612e-07
7.56741e-07
7.6803e-07
7.72612e-07
7.13967e-07
7.21421e-07
6.98278e-07
6.37024e-07
5.34645e-07
5.36715e-07
5.63137e-07
5.2327e-07
5.38581e-07
5.50448e-07
4.46032e-07
3.61659e-07
3.98577e-07
3.87864e-07
3.50823e-07
3.23981e-07
3.51962e-07
3.10749e-07
2.61892e-07
2.4117e-07
2.41179e-07
2.45945e-07
2.38683e-07
1.77945e-07
2.04723e-07
2.77951e-07
2.38372e-07
1.64659e-07
2.22524e-07
1.99566e-07
1.85619e-07
2.59987e-07
2.06839e-07
1.62981e-07
2.49336e-07
1.85924e-07
2.00829e-07
2.56644e-07
2.03966e-07
1.91656e-07
2.4993e-07
1.59183e-07
2.28117e-07
2.60733e-07
2.2275e-07
2.95092e-07
2.82487e-07
2.62515e-07
3.62864e-07
3.26332e-07
3.48324e-07
4.83726e-07
5.85094e-07
7.38457e-07
9.77885e-07
1.1615e-06
1.52786e-06
1.90698e-06
2.2902e-06
2.88596e-06
3.69098e-06
4.57354e-06
5.60796e-06
6.73881e-06
7.94337e-06
9.15574e-06
1.0364e-05
1.15628e-05
1.28061e-05
1.4071e-05
1.53235e-05
1.65214e-05
1.75291e-05
1.80846e-05
1.79892e-05
1.74681e-05
1.67773e-05
1.62147e-05
1.61042e-05
1.63708e-05
1.6634e-05
1.6652e-05
1.63048e-05
1.55477e-05
1.46304e-05
1.41353e-05
1.39621e-05
1.41403e-05
1.46438e-05
1.54778e-05
1.66081e-05
1.79789e-05
1.95411e-05
2.12549e-05
2.30832e-05
2.49968e-05
2.698e-05
2.89961e-05
3.10293e-05
3.30039e-05
3.4914e-05
3.67425e-05
3.84404e-05
3.99929e-05
4.14147e-05
4.27469e-05
4.39937e-05
4.50788e-05
4.59633e-05
4.66571e-05
4.71563e-05
4.7464e-05
4.75991e-05
5.93935e-05
5.9233e-05
5.88707e-05
5.8285e-05
5.7469e-05
5.6422e-05
5.51365e-05
5.36467e-05
5.20218e-05
5.0264e-05
4.83386e-05
4.62311e-05
4.3957e-05
4.15813e-05
3.91308e-05
3.66126e-05
3.41069e-05
3.16344e-05
2.92399e-05
2.69486e-05
2.48036e-05
2.28524e-05
2.1151e-05
1.97635e-05
1.87638e-05
1.81923e-05
1.80476e-05
1.83686e-05
1.90923e-05
1.98608e-05
2.01487e-05
1.99678e-05
1.94506e-05
1.88109e-05
1.84033e-05
1.85606e-05
1.90662e-05
1.93957e-05
1.93341e-05
1.87276e-05
1.74036e-05
1.57273e-05
1.39784e-05
1.21408e-05
1.0268e-05
8.41741e-06
6.68507e-06
5.19885e-06
3.92814e-06
2.98111e-06
2.16938e-06
1.58087e-06
1.15226e-06
9.40945e-07
7.47787e-07
6.36295e-07
4.88413e-07
4.10097e-07
3.96212e-07
4.22193e-07
3.38295e-07
3.57235e-07
3.5156e-07
3.3604e-07
3.26711e-07
4.10678e-07
3.29896e-07
4.18195e-07
3.55899e-07
3.02619e-07
3.1622e-07
2.86839e-07
2.85033e-07
3.5443e-07
3.18496e-07
3.10953e-07
3.35224e-07
2.59499e-07
2.63457e-07
2.70808e-07
2.08047e-07
2.18825e-07
2.20435e-07
1.65633e-07
2.13592e-07
2.91431e-07
2.008e-07
1.78941e-07
1.67161e-07
1.7505e-07
1.45883e-07
1.66093e-07
1.44342e-07
1.55576e-07
1.67168e-07
1.31779e-07
8.60022e-08
8.07331e-08
8.98999e-08
1.0389e-07
1.24471e-07
1.6427e-07
1.34063e-07
1.05484e-07
2.12115e-07
2.54704e-07
1.9468e-07
2.23049e-07
2.75345e-07
2.87483e-07
2.86487e-07
3.67033e-07
4.05337e-07
3.73089e-07
4.06845e-07
4.23539e-07
3.85267e-07
4.45887e-07
5.35997e-07
4.50786e-07
4.68584e-07
4.34062e-07
3.75956e-07
3.66236e-07
3.81769e-07
1.48354e-07
2.01918e-07
1.42503e-08
1.26631e-08
1.8148e-07
3.32882e-07
5.34407e-07
5.04152e-07
5.77147e-07
6.98849e-07
7.41229e-07
7.22837e-07
7.91665e-07
7.11712e-07
7.00282e-07
7.49408e-07
7.52852e-07
7.24847e-07
6.38157e-07
5.65628e-07
5.88911e-07
4.80044e-07
3.86382e-07
4.40086e-07
4.13279e-07
3.38295e-07
3.66305e-07
3.76871e-07
2.63829e-07
1.93509e-07
2.52499e-07
2.5489e-07
1.80179e-07
1.58283e-07
1.90225e-07
1.80416e-07
1.65168e-07
1.60514e-07
1.45587e-07
1.80653e-07
2.07468e-07
2.2691e-07
2.47525e-07
2.09338e-07
1.96703e-07
2.17429e-07
2.77517e-07
2.39078e-07
2.0264e-07
2.3978e-07
2.28969e-07
2.26991e-07
3.12426e-07
2.86006e-07
2.58677e-07
3.13687e-07
2.33085e-07
3.01975e-07
3.04981e-07
2.92453e-07
3.06919e-07
3.15857e-07
2.885e-07
2.99074e-07
3.02364e-07
2.60766e-07
3.08402e-07
3.0364e-07
2.83724e-07
3.37141e-07
3.16984e-07
3.39805e-07
3.80425e-07
3.57224e-07
4.14833e-07
5.51731e-07
6.01135e-07
7.25941e-07
1.08014e-06
1.54477e-06
2.12958e-06
2.96174e-06
4.02704e-06
5.36587e-06
6.86071e-06
8.51433e-06
1.02885e-05
1.21086e-05
1.39301e-05
1.57249e-05
1.74295e-05
1.8763e-05
1.93728e-05
1.94017e-05
1.90507e-05
1.85585e-05
1.84168e-05
1.88208e-05
1.94554e-05
1.99743e-05
2.0163e-05
1.98853e-05
1.91275e-05
1.84067e-05
1.80833e-05
1.82256e-05
1.87915e-05
1.9786e-05
2.11687e-05
2.28664e-05
2.48138e-05
2.69551e-05
2.92427e-05
3.16349e-05
3.41057e-05
3.66103e-05
3.91284e-05
4.15794e-05
4.39557e-05
4.62308e-05
4.83401e-05
5.02676e-05
5.20269e-05
5.36516e-05
5.51412e-05
5.64268e-05
5.74734e-05
5.82888e-05
5.88742e-05
5.92353e-05
5.93942e-05
7.16728e-05
7.14907e-05
7.10769e-05
7.04087e-05
6.94768e-05
6.82749e-05
6.67952e-05
6.5065e-05
6.31462e-05
6.10466e-05
5.87387e-05
5.62089e-05
5.34756e-05
5.06186e-05
4.76766e-05
4.46589e-05
4.16473e-05
3.86674e-05
3.57731e-05
3.30015e-05
3.04108e-05
2.80643e-05
2.60345e-05
2.44028e-05
2.32606e-05
2.26561e-05
2.25883e-05
2.31004e-05
2.37209e-05
2.39332e-05
2.36319e-05
2.292e-05
2.19747e-05
2.10538e-05
2.05093e-05
2.05592e-05
2.08437e-05
2.0782e-05
2.00677e-05
1.85598e-05
1.64014e-05
1.40771e-05
1.16951e-05
9.22319e-06
6.8098e-06
4.75405e-06
3.28267e-06
2.15683e-06
1.58088e-06
1.08289e-06
8.70209e-07
6.31752e-07
5.43826e-07
5.11152e-07
5.20987e-07
4.70736e-07
4.89119e-07
4.50938e-07
4.93245e-07
4.73571e-07
4.32744e-07
4.44256e-07
4.50837e-07
3.90539e-07
4.60647e-07
4.18461e-07
4.42186e-07
4.38572e-07
4.41884e-07
3.82976e-07
4.138e-07
3.66331e-07
3.68085e-07
3.95255e-07
3.58603e-07
3.68435e-07
3.91436e-07
3.633e-07
3.66567e-07
3.66499e-07
2.96887e-07
2.98143e-07
2.9201e-07
2.224e-07
2.73999e-07
2.76631e-07
2.76484e-07
1.98152e-07
2.47429e-07
2.14186e-07
2.45728e-07
2.15377e-07
1.93534e-07
1.59989e-07
2.00954e-07
1.85515e-07
1.44894e-07
1.29675e-07
1.31444e-07
8.73512e-08
1.25576e-07
1.20634e-07
6.72842e-08
4.52195e-08
9.59899e-08
1.19376e-07
1.26017e-07
1.04637e-07
1.93447e-07
2.08731e-07
2.31971e-07
3.10729e-07
3.16127e-07
3.61943e-07
3.89193e-07
4.11966e-07
3.64899e-07
3.76748e-07
4.84e-07
4.49884e-07
3.99724e-07
5.09548e-07
4.53961e-07
3.80111e-07
4.28409e-07
1.75909e-07
1.72276e-07
5.06265e-09
8.79303e-08
3.22183e-07
4.25752e-07
5.74549e-07
5.44601e-07
6.28172e-07
6.92984e-07
6.58685e-07
5.92832e-07
6.48029e-07
5.19959e-07
6.48463e-07
6.76823e-07
6.34791e-07
5.43241e-07
4.35087e-07
4.35853e-07
3.8011e-07
3.3553e-07
2.96682e-07
2.76703e-07
2.33932e-07
1.82985e-07
2.22179e-07
1.78353e-07
1.05389e-07
1.48221e-07
2.33784e-07
1.67661e-07
1.38856e-07
1.83073e-07
2.2151e-07
1.42903e-07
1.89176e-07
2.39991e-07
2.7644e-07
2.97689e-07
2.99212e-07
3.17652e-07
3.19028e-07
3.38361e-07
3.03485e-07
3.48449e-07
3.38859e-07
3.37986e-07
3.45703e-07
3.92515e-07
3.8961e-07
3.79059e-07
3.97474e-07
3.95757e-07
3.63287e-07
3.99737e-07
3.79976e-07
3.50422e-07
3.93425e-07
3.46445e-07
3.79072e-07
4.03256e-07
3.50667e-07
3.90293e-07
3.52967e-07
3.60527e-07
3.79375e-07
3.87101e-07
3.7379e-07
4.03607e-07
3.46589e-07
3.71664e-07
3.66729e-07
3.41592e-07
3.43021e-07
4.0641e-07
3.8159e-07
3.95743e-07
4.26362e-07
6.1368e-07
7.71564e-07
1.01286e-06
1.49548e-06
2.2442e-06
3.39837e-06
4.83641e-06
6.83451e-06
9.18537e-06
1.16409e-05
1.40692e-05
1.64336e-05
1.86086e-05
2.0118e-05
2.07946e-05
2.08279e-05
2.05536e-05
2.05229e-05
2.1067e-05
2.19827e-05
2.29289e-05
2.36485e-05
2.39602e-05
2.37596e-05
2.31472e-05
2.26321e-05
2.26978e-05
2.32955e-05
2.44308e-05
2.60562e-05
2.80813e-05
3.04232e-05
3.30094e-05
3.57767e-05
3.86681e-05
4.16462e-05
4.46567e-05
4.76743e-05
5.06169e-05
5.34746e-05
5.62091e-05
5.87408e-05
6.10511e-05
6.31525e-05
6.50713e-05
6.68016e-05
6.82814e-05
6.94827e-05
7.04139e-05
7.10816e-05
7.14938e-05
7.16739e-05
8.43617e-05
8.41594e-05
8.36995e-05
8.2955e-05
8.19101e-05
8.05577e-05
7.88867e-05
7.69195e-05
7.47116e-05
7.2273e-05
6.95806e-05
6.66214e-05
6.34211e-05
6.00719e-05
5.66274e-05
5.30982e-05
4.95651e-05
4.60593e-05
4.26475e-05
3.93805e-05
3.63339e-05
3.35877e-05
3.12332e-05
2.93719e-05
2.81128e-05
2.75093e-05
2.75524e-05
2.79967e-05
2.80958e-05
2.76632e-05
2.67556e-05
2.55079e-05
2.4144e-05
2.30103e-05
2.24353e-05
2.2374e-05
2.22326e-05
2.15161e-05
1.99663e-05
1.7522e-05
1.46045e-05
1.16568e-05
8.63056e-06
5.72017e-06
3.47605e-06
2.20002e-06
1.32256e-06
9.9166e-07
6.72815e-07
6.51086e-07
5.50508e-07
4.78141e-07
5.06213e-07
4.84854e-07
5.20593e-07
5.07313e-07
5.10461e-07
5.13868e-07
5.30766e-07
5.03414e-07
5.16872e-07
5.01052e-07
5.02038e-07
4.62028e-07
4.86955e-07
4.61447e-07
4.43347e-07
4.89595e-07
4.26117e-07
4.56252e-07
4.26762e-07
4.05411e-07
4.09934e-07
4.23481e-07
4.00732e-07
4.11729e-07
4.19369e-07
3.7254e-07
4.18113e-07
4.092e-07
4.20071e-07
4.09769e-07
4.26677e-07
3.48225e-07
3.90154e-07
4.05466e-07
3.97344e-07
3.63403e-07
3.30891e-07
3.09531e-07
3.07941e-07
3.07954e-07
2.88543e-07
2.5566e-07
2.73921e-07
2.65888e-07
2.00577e-07
2.58633e-07
2.34328e-07
2.12825e-07
1.73285e-07
2.06864e-07
1.3242e-07
1.14496e-07
1.20435e-07
1.27521e-07
1.46846e-07
1.21859e-07
2.15432e-07
2.58551e-07
2.08178e-07
2.57676e-07
2.48065e-07
2.74045e-07
3.51208e-07
3.26813e-07
4.66418e-07
3.97056e-07
3.89026e-07
4.75162e-07
4.29676e-07
4.87715e-07
5.32372e-07
3.89258e-07
5.16941e-07
2.56155e-07
1.36323e-07
1.25379e-08
2.26899e-07
4.07105e-07
4.74288e-07
5.94606e-07
5.48861e-07
5.79964e-07
5.96209e-07
5.63108e-07
5.05967e-07
4.74069e-07
5.05179e-07
6.02016e-07
5.32469e-07
4.77454e-07
3.5471e-07
2.63452e-07
3.49839e-07
2.69598e-07
2.48561e-07
2.56535e-07
2.22677e-07
2.13654e-07
1.39074e-07
1.77796e-07
1.57666e-07
1.50985e-07
2.7755e-07
3.26601e-07
2.7066e-07
2.17667e-07
3.06261e-07
3.31554e-07
3.01339e-07
3.55683e-07
3.8127e-07
4.05019e-07
3.80682e-07
4.33626e-07
4.18346e-07
4.54212e-07
3.84416e-07
4.43443e-07
4.13579e-07
4.85907e-07
4.0513e-07
4.69789e-07
4.39816e-07
4.5209e-07
4.45678e-07
4.47631e-07
4.29775e-07
4.0677e-07
4.2591e-07
4.33052e-07
4.27534e-07
4.69218e-07
4.46581e-07
4.76199e-07
4.58918e-07
4.45317e-07
4.45119e-07
4.50705e-07
4.49105e-07
4.62743e-07
4.53165e-07
4.6066e-07
4.22304e-07
4.48749e-07
4.07914e-07
4.63369e-07
3.95841e-07
4.47333e-07
4.21743e-07
4.63745e-07
3.88888e-07
4.50323e-07
3.9639e-07
5.52416e-07
4.77902e-07
6.30178e-07
8.79753e-07
1.37891e-06
2.18644e-06
3.40087e-06
5.6352e-06
8.5363e-06
1.16196e-05
1.4631e-05
1.75818e-05
2.00324e-05
2.15474e-05
2.22276e-05
2.23679e-05
2.24484e-05
2.30274e-05
2.41556e-05
2.55189e-05
2.67738e-05
2.76917e-05
2.81362e-05
2.80468e-05
2.7604e-05
2.75596e-05
2.81556e-05
2.94062e-05
3.12596e-05
3.36082e-05
3.63487e-05
3.93898e-05
4.2652e-05
4.60605e-05
4.95642e-05
5.30961e-05
5.66254e-05
6.00705e-05
6.34204e-05
6.66221e-05
6.95836e-05
7.22787e-05
7.47193e-05
7.69276e-05
7.8895e-05
8.0566e-05
8.19179e-05
8.29618e-05
8.37054e-05
8.41634e-05
8.43632e-05
9.74048e-05
9.71848e-05
9.66837e-05
9.58662e-05
9.47148e-05
9.32187e-05
9.13635e-05
8.91645e-05
8.66733e-05
8.38982e-05
8.08193e-05
7.74295e-05
7.37565e-05
6.99081e-05
6.5953e-05
6.19006e-05
5.78311e-05
5.37845e-05
4.98403e-05
4.6065e-05
4.25557e-05
3.94103e-05
3.67401e-05
3.46692e-05
3.33243e-05
3.2757e-05
3.28126e-05
3.27413e-05
3.21526e-05
3.10471e-05
2.95412e-05
2.78064e-05
2.60977e-05
2.47681e-05
2.4061e-05
2.37604e-05
2.31337e-05
2.16084e-05
1.90548e-05
1.57196e-05
1.21332e-05
8.59973e-06
5.23607e-06
2.71128e-06
1.63324e-06
1.03003e-06
7.63468e-07
6.48562e-07
5.64647e-07
5.76529e-07
5.79631e-07
5.43495e-07
5.44693e-07
5.69552e-07
5.71196e-07
5.55456e-07
5.76219e-07
5.38902e-07
6.18378e-07
5.3339e-07
5.98617e-07
5.72245e-07
5.60419e-07
5.40936e-07
5.78575e-07
5.04567e-07
5.713e-07
5.14494e-07
5.61131e-07
5.12392e-07
5.70516e-07
4.7043e-07
5.3779e-07
4.71336e-07
4.98743e-07
4.49392e-07
4.9361e-07
4.07097e-07
4.61064e-07
4.23737e-07
4.37674e-07
4.33357e-07
4.4583e-07
4.24334e-07
4.40975e-07
4.59391e-07
4.68472e-07
4.38252e-07
4.29022e-07
3.9231e-07
3.88177e-07
3.9348e-07
3.62832e-07
3.42601e-07
3.40632e-07
3.83882e-07
2.73751e-07
3.50671e-07
3.33263e-07
2.9876e-07
2.99688e-07
2.43534e-07
2.35521e-07
1.5097e-07
1.88803e-07
1.48179e-07
1.33545e-07
1.30046e-07
1.56534e-07
2.84244e-07
2.05961e-07
2.52069e-07
3.0148e-07
1.45045e-07
2.93929e-07
1.52112e-07
3.4167e-07
4.55354e-07
3.56117e-07
4.30949e-07
4.27738e-07
4.99699e-07
5.76725e-07
4.24938e-07
5.41708e-07
3.58295e-07
1.54178e-07
2.17724e-08
3.25373e-07
4.2027e-07
4.94739e-07
5.51992e-07
4.81219e-07
5.2699e-07
5.28197e-07
4.70923e-07
4.40584e-07
3.81725e-07
5.61692e-07
4.35462e-07
3.43063e-07
3.11942e-07
1.84586e-07
2.46033e-07
2.92557e-07
2.05283e-07
2.60723e-07