/*--------------------------------*- C++ -*----------------------------------*\
| =========                 |                                                 |
| \\      /  F ield         | OpenFOAM: The Open Source CFD Toolbox           |
|  \\    /   O peration     | Version:  v2006                                 |
|   \\  /    A nd           | Website:  www.openfoam.com                      |
|    \\/     M anipulation  |                                                 |
\*---------------------------------------------------------------------------*/
FoamFile
{
    version     2.0;
    format      ascii;
    class       volScalarField;
    location    "1000";
    object      pPrime2Mean;
}
// * * * * * * * * * * * * * * * * * * * * * * * * * * * * * * * * * * * * * //

dimensions      [2 -2 -4 0 0 0 0];


internalField   nonuniform List<scalar> 
65536
(
4.46113e-07
4.45403e-07
4.4513e-07
4.4534e-07
4.45549e-07
4.46534e-07
4.46982e-07
4.48292e-07
4.49057e-07
4.50638e-07
4.51068e-07
4.52668e-07
4.53076e-07
4.5451e-07
4.54421e-07
4.55862e-07
4.55387e-07
4.56635e-07
4.55849e-07
4.56953e-07
4.55847e-07
4.56967e-07
4.55736e-07
4.56849e-07
4.55583e-07
4.56691e-07
4.55328e-07
4.56457e-07
4.55132e-07
4.56414e-07
4.55065e-07
4.56375e-07
4.55025e-07
4.56191e-07
4.55539e-07
4.5612e-07
4.54125e-07
4.54798e-07
4.51892e-07
4.52462e-07
4.51612e-07
4.57406e-07
4.61526e-07
4.65609e-07
4.66223e-07
4.70268e-07
4.66479e-07
4.63022e-07
4.62059e-07
4.58551e-07
4.5514e-07
4.52947e-07
4.49804e-07
4.47853e-07
4.45305e-07
4.43917e-07
4.4141e-07
4.4108e-07
4.37843e-07
4.39199e-07
4.34829e-07
4.38462e-07
4.31758e-07
4.38864e-07
4.28816e-07
4.40137e-07
4.26871e-07
4.4062e-07
4.26736e-07
4.39529e-07
4.28537e-07
4.37167e-07
4.31431e-07
4.35386e-07
4.34117e-07
4.34662e-07
4.36442e-07
4.35502e-07
4.38036e-07
4.37371e-07
4.39788e-07
4.39828e-07
4.41956e-07
4.42889e-07
4.44454e-07
4.45961e-07
4.47645e-07
4.4976e-07
4.51413e-07
4.53197e-07
4.54609e-07
4.5705e-07
4.59122e-07
4.60791e-07
4.62874e-07
4.64781e-07
4.66879e-07
4.68348e-07
4.70593e-07
4.72196e-07
4.74631e-07
4.76579e-07
4.78835e-07
4.80812e-07
4.82836e-07
4.85038e-07
4.86915e-07
4.89081e-07
4.90929e-07
4.93826e-07
4.95336e-07
4.9841e-07
4.99869e-07
5.02513e-07
5.03191e-07
5.06318e-07
5.07044e-07
5.10002e-07
5.11692e-07
5.13731e-07
5.16021e-07
5.16628e-07
5.18888e-07
5.18073e-07
5.21078e-07
5.19169e-07
5.22555e-07
5.20437e-07
5.2027e-07
5.24589e-07
5.20067e-07
5.24863e-07
5.20858e-07
5.24273e-07
5.21566e-07
5.21873e-07
5.20748e-07
5.20216e-07
5.20501e-07
5.18592e-07
5.17906e-07
5.1499e-07
5.13908e-07
5.12511e-07
5.12114e-07
5.1057e-07
5.08421e-07
5.06609e-07
5.0456e-07
5.02742e-07
5.02019e-07
5.01528e-07
5.00632e-07
4.97253e-07
4.9602e-07
4.94614e-07
4.92735e-07
4.91125e-07
4.89629e-07
4.87974e-07
4.86288e-07
4.84618e-07
4.8336e-07
4.81822e-07
4.80285e-07
4.78211e-07
4.77097e-07
4.75195e-07
4.74049e-07
4.72249e-07
4.70667e-07
4.70251e-07
4.67477e-07
4.67984e-07
4.64817e-07
4.66558e-07
4.63075e-07
4.65265e-07
4.62169e-07
4.63662e-07
4.62915e-07
4.60885e-07
4.65507e-07
4.57904e-07
4.69205e-07
4.5475e-07
4.72886e-07
4.53483e-07
4.74368e-07
4.55175e-07
4.73841e-07
4.58909e-07
4.72619e-07
4.63671e-07
4.72473e-07
4.68522e-07
4.73999e-07
4.73028e-07
4.77187e-07
4.78254e-07
4.81513e-07
4.83824e-07
4.8729e-07
4.90105e-07
4.94374e-07
4.97518e-07
5.01776e-07
5.06642e-07
5.08442e-07
5.1136e-07
5.16792e-07
5.12312e-07
5.0865e-07
5.01381e-07
4.92875e-07
4.78798e-07
4.72953e-07
4.65622e-07
4.65286e-07
4.61411e-07
4.64086e-07
4.61453e-07
4.62778e-07
4.60082e-07
4.6255e-07
4.59814e-07
4.61978e-07
4.59383e-07
4.61354e-07
4.58982e-07
4.60926e-07
4.58902e-07
4.60971e-07
4.59159e-07
4.61157e-07
4.59657e-07
4.61895e-07
4.60938e-07
4.6308e-07
4.62437e-07
4.64467e-07
4.63917e-07
4.65628e-07
4.64956e-07
4.65804e-07
4.64247e-07
4.64048e-07
4.61602e-07
4.60571e-07
4.58098e-07
4.56767e-07
4.53781e-07
4.52173e-07
4.49751e-07
4.48451e-07
4.46959e-07
4.46479e-07
4.46901e-07
4.45699e-07
4.45757e-07
4.45396e-07
4.46565e-07
4.46916e-07
4.49595e-07
4.49033e-07
4.50324e-07
4.51968e-07
4.52981e-07
4.52968e-07
4.54471e-07
4.54331e-07
4.55747e-07
4.55234e-07
4.56405e-07
4.55572e-07
4.56616e-07
4.55495e-07
4.56664e-07
4.55504e-07
4.56645e-07
4.55432e-07
4.56552e-07
4.55234e-07
4.56438e-07
4.55311e-07
4.56597e-07
4.55531e-07
4.56214e-07
4.55706e-07
4.56896e-07
4.57205e-07
4.57135e-07
4.58946e-07
4.57085e-07
4.51866e-07
4.52433e-07
4.51426e-07
4.56727e-07
4.60418e-07
4.64052e-07
4.64053e-07
4.67383e-07
4.64491e-07
4.61795e-07
4.60208e-07
4.57118e-07
4.53912e-07
4.51727e-07
4.48608e-07
4.46739e-07
4.44324e-07
4.43019e-07
4.40548e-07
4.40292e-07
4.37514e-07
4.384e-07
4.34412e-07
4.3765e-07
4.31511e-07
4.38271e-07
4.28546e-07
4.39699e-07
4.26745e-07
4.4032e-07
4.268e-07
4.39317e-07
4.28566e-07
4.37058e-07
4.31514e-07
4.35293e-07
4.34235e-07
4.34741e-07
4.36476e-07
4.35655e-07
4.38112e-07
4.37554e-07
4.40006e-07
4.39898e-07
4.42267e-07
4.43516e-07
4.45044e-07
4.46374e-07
4.48058e-07
4.50325e-07
4.52055e-07
4.53651e-07
4.54997e-07
4.57261e-07
4.59341e-07
4.60999e-07
4.62966e-07
4.64854e-07
4.67086e-07
4.68505e-07
4.70819e-07
4.72482e-07
4.7498e-07
4.76837e-07
4.79003e-07
4.81051e-07
4.83062e-07
4.8506e-07
4.87195e-07
4.89801e-07
4.90757e-07
4.93144e-07
4.9482e-07
4.98451e-07
5.00126e-07
5.02827e-07
5.03537e-07
5.06794e-07
5.07786e-07
5.11548e-07
5.12101e-07
5.14981e-07
5.1637e-07
5.16525e-07
5.18256e-07
5.18133e-07
5.20844e-07
5.19614e-07
5.23034e-07
5.20374e-07
5.21152e-07
5.25261e-07
5.20696e-07
5.24896e-07
5.21198e-07
5.23059e-07
5.20943e-07
5.22501e-07
5.21375e-07
5.20631e-07
5.19824e-07
5.19936e-07
5.19201e-07
5.15773e-07
5.14818e-07
5.13207e-07
5.12546e-07
5.10253e-07
5.08434e-07
5.06322e-07
5.0463e-07
5.0343e-07
5.01792e-07
5.0128e-07
5.00579e-07
4.97295e-07
4.95943e-07
4.94417e-07
4.92641e-07
4.91287e-07
4.89817e-07
4.88141e-07
4.86239e-07
4.84536e-07
4.83369e-07
4.82015e-07
4.80417e-07
4.78342e-07
4.77233e-07
4.75442e-07
4.74123e-07
4.72547e-07
4.70759e-07
4.70183e-07
4.67494e-07
4.67683e-07
4.64645e-07
4.66309e-07
4.62885e-07
4.64946e-07
4.61944e-07
4.63268e-07
4.62576e-07
4.60614e-07
4.64969e-07
4.57529e-07
4.68525e-07
4.54285e-07
4.72045e-07
4.53056e-07
4.73474e-07
4.54469e-07
4.72706e-07
4.58199e-07
4.71308e-07
4.62989e-07
4.71069e-07
4.67445e-07
4.7257e-07
4.72066e-07
4.75637e-07
4.76513e-07
4.79763e-07
4.81956e-07
4.8527e-07
4.87941e-07
4.92193e-07
4.95411e-07
4.99323e-07
5.0365e-07
5.06081e-07
5.08482e-07
5.1238e-07
5.08404e-07
5.05721e-07
4.99257e-07
4.91448e-07
4.78074e-07
4.72618e-07
4.65423e-07
4.64065e-07
4.71305e-07
4.62434e-07
4.62809e-07
4.62389e-07
4.60283e-07
4.61818e-07
4.60152e-07
4.61928e-07
4.59374e-07
4.6114e-07
4.58752e-07
4.60651e-07
4.58576e-07
4.60579e-07
4.58778e-07
4.60637e-07
4.59024e-07
4.61225e-07
4.60193e-07
4.6222e-07
4.61489e-07
4.63435e-07
4.62836e-07
4.64539e-07
4.63908e-07
4.64851e-07
4.63624e-07
4.62654e-07
4.60537e-07
4.60844e-07
4.56658e-07
4.55473e-07
4.5326e-07
4.5287e-07
4.50045e-07
4.49372e-07
4.46408e-07
4.46229e-07
4.44883e-07
4.44809e-07
4.44783e-07
4.45527e-07
4.45918e-07
4.4625e-07
4.47271e-07
4.48546e-07
4.49804e-07
4.50417e-07
4.52782e-07
4.52938e-07
4.5436e-07
4.54329e-07
4.55742e-07
4.55253e-07
4.56481e-07
4.55645e-07
4.56829e-07
4.55917e-07
4.57015e-07
4.55813e-07
4.56892e-07
4.55676e-07
4.56757e-07
4.55384e-07
4.56581e-07
4.55155e-07
4.56465e-07
4.55154e-07
4.56661e-07
4.53468e-07
4.55502e-07
4.53947e-07
4.54349e-07
4.53387e-07
4.5842e-07
4.53791e-07
4.55078e-07
4.53522e-07
4.56708e-07
4.58723e-07
4.64697e-07
4.64889e-07
4.6792e-07
4.63732e-07
4.60923e-07
4.60347e-07
4.56063e-07
4.53015e-07
4.51144e-07
4.48362e-07
4.4651e-07
4.44048e-07
4.42771e-07
4.4046e-07
4.4012e-07
4.36553e-07
4.38872e-07
4.34082e-07
4.38483e-07
4.31065e-07
4.38868e-07
4.28557e-07
4.4002e-07
4.26742e-07
4.40449e-07
4.26686e-07
4.39528e-07
4.28756e-07
4.3726e-07
4.31709e-07
4.35675e-07
4.34592e-07
4.35173e-07
4.36937e-07
4.3617e-07
4.38683e-07
4.3808e-07
4.40391e-07
4.40798e-07
4.4219e-07
4.42702e-07
4.44636e-07
4.4649e-07
4.47943e-07
4.49713e-07
4.51395e-07
4.53706e-07
4.5515e-07
4.57954e-07
4.60009e-07
4.6176e-07
4.64137e-07
4.6589e-07
4.67692e-07
4.69284e-07
4.71347e-07
4.72791e-07
4.75048e-07
4.77274e-07
4.79701e-07
4.81397e-07
4.83317e-07
4.85976e-07
4.8843e-07
4.91063e-07
4.92639e-07
4.94314e-07
4.96148e-07
4.98661e-07
5.00136e-07
5.02925e-07
5.0367e-07
5.06766e-07
5.08551e-07
5.11039e-07
5.12765e-07
5.14808e-07
5.16607e-07
5.16761e-07
5.18728e-07
5.18231e-07
5.20905e-07
5.19429e-07
5.22482e-07
5.20542e-07
5.20572e-07
5.24483e-07
5.20521e-07
5.24797e-07
5.2122e-07
5.23772e-07
5.21379e-07
5.22322e-07
5.2147e-07
5.20966e-07
5.21207e-07
5.19134e-07
5.18596e-07
5.1564e-07
5.14069e-07
5.12851e-07
5.12599e-07
5.11622e-07
5.08892e-07
5.07132e-07
5.04927e-07
5.06802e-07
5.05826e-07
5.02684e-07
5.00964e-07
4.97335e-07
4.96279e-07
4.95179e-07
4.93184e-07
4.90951e-07
4.89264e-07
4.87479e-07
4.86223e-07
4.8481e-07
4.8341e-07
4.81384e-07
4.79763e-07
4.7772e-07
4.76731e-07
4.74572e-07
4.73882e-07
4.71366e-07
4.70449e-07
4.70314e-07
4.67219e-07
4.68471e-07
4.65051e-07
4.66691e-07
4.63194e-07
4.65278e-07
4.62161e-07
4.6359e-07
4.62713e-07
4.60796e-07
4.65003e-07
4.57444e-07
4.68775e-07
4.54252e-07
4.72483e-07
4.52618e-07
4.73748e-07
4.54134e-07
4.73356e-07
4.57452e-07
4.72106e-07
4.61724e-07
4.71512e-07
4.66742e-07
4.72629e-07
4.70535e-07
4.75186e-07
4.76358e-07
4.79355e-07
4.81498e-07
4.84811e-07
4.87516e-07
4.9134e-07
4.93822e-07
4.97765e-07
5.03417e-07
5.05129e-07
5.07029e-07
5.12775e-07
5.09834e-07
5.07001e-07
4.97485e-07
4.90796e-07
4.8099e-07
4.77397e-07
4.67554e-07
4.72467e-07
4.56922e-07
4.6153e-07
4.59726e-07
4.63128e-07
4.58965e-07
4.63493e-07
4.60417e-07
4.62241e-07
4.595e-07
4.61549e-07
4.59133e-07
4.61128e-07
4.58963e-07
4.61158e-07
4.59401e-07
4.61281e-07
4.59785e-07
4.61739e-07
4.60721e-07
4.62866e-07
4.62192e-07
4.64188e-07
4.63503e-07
4.65156e-07
4.64345e-07
4.65389e-07
4.63301e-07
4.63227e-07
4.61598e-07
4.60038e-07
4.57777e-07
4.56461e-07
4.54318e-07
4.52089e-07
4.50178e-07
4.48531e-07
4.47762e-07
4.46335e-07
4.45897e-07
4.45338e-07
4.45833e-07
4.45845e-07
4.47011e-07
4.47249e-07
4.49263e-07
4.49812e-07
4.51381e-07
4.51965e-07
4.52913e-07
4.53149e-07
4.54573e-07
4.54444e-07
4.55879e-07
4.55326e-07
4.5657e-07
4.55552e-07
4.56715e-07
4.55983e-07
4.5688e-07
4.5567e-07
4.56895e-07
4.55648e-07
4.56844e-07
4.55517e-07
4.56535e-07
4.55422e-07
4.56693e-07
4.5567e-07
4.56981e-07
4.56985e-07
4.57794e-07
4.58122e-07
4.57294e-07
4.55871e-07
4.54123e-07
4.49681e-07
4.5241e-07
4.52047e-07
4.57968e-07
4.58638e-07
4.61635e-07
4.62433e-07
4.65117e-07
4.62086e-07
4.59225e-07
4.57432e-07
4.55352e-07
4.52114e-07
4.49912e-07
4.46886e-07
4.45222e-07
4.42995e-07
4.41824e-07
4.39457e-07
4.39518e-07
4.37297e-07
4.3715e-07
4.34037e-07
4.36288e-07
4.31522e-07
4.37166e-07
4.28336e-07
4.39052e-07
4.26698e-07
4.40043e-07
4.26945e-07
4.38986e-07
4.28454e-07
4.36851e-07
4.31515e-07
4.34918e-07
4.34387e-07
4.34504e-07
4.36529e-07
4.35613e-07
4.38119e-07
4.37767e-07
4.40686e-07
4.40148e-07
4.4275e-07
4.44705e-07
4.46072e-07
4.47563e-07
4.49081e-07
4.51567e-07
4.5311e-07
4.54466e-07
4.55957e-07
4.5829e-07
4.6038e-07
4.62068e-07
4.63757e-07
4.65766e-07
4.68209e-07
4.69445e-07
4.71692e-07
4.73203e-07
4.75837e-07
4.77554e-07
4.79667e-07
4.81787e-07
4.83918e-07
4.85766e-07
4.88134e-07
4.90793e-07
4.92409e-07
4.95495e-07
4.96484e-07
4.99303e-07
5.00429e-07
5.02888e-07
5.03748e-07
5.06856e-07
5.07631e-07
5.10749e-07
5.12654e-07
5.14745e-07
5.16443e-07
5.16659e-07
5.18799e-07
5.18134e-07
5.20991e-07
5.19121e-07
5.22506e-07
5.20191e-07
5.20139e-07
5.24516e-07
5.19902e-07
5.24732e-07
5.20721e-07
5.23664e-07
5.20966e-07
5.22411e-07
5.21299e-07
5.20977e-07
5.21158e-07
5.19062e-07
5.18283e-07
5.15005e-07
5.13865e-07
5.12726e-07
5.12758e-07
5.11343e-07
5.08892e-07
5.06826e-07
5.04948e-07
5.02724e-07
5.01951e-07
5.0165e-07
5.00785e-07
4.97627e-07
4.96415e-07
4.94981e-07
4.93114e-07
4.9209e-07
4.90947e-07
4.89562e-07
4.87529e-07
4.85735e-07
4.84758e-07
4.83421e-07
4.81763e-07
4.79587e-07
4.78312e-07
4.76283e-07
4.7479e-07
4.73617e-07
4.71333e-07
4.70683e-07
4.68372e-07
4.67535e-07
4.64788e-07
4.6599e-07
4.62636e-07
4.64609e-07
4.61497e-07
4.62905e-07
4.61884e-07
4.60352e-07
4.64205e-07
4.57177e-07
4.67559e-07
4.53644e-07
4.70726e-07
4.52677e-07
4.72257e-07
4.53892e-07
4.70818e-07
4.57757e-07
4.69174e-07
4.62655e-07
4.69189e-07
4.66403e-07
4.70615e-07
4.71229e-07
4.74027e-07
4.7429e-07
4.77406e-07
4.79396e-07
4.82495e-07
4.84872e-07
4.8891e-07
4.92328e-07
4.96151e-07
4.99299e-07
5.01617e-07
5.04385e-07
5.08585e-07
5.05252e-07
5.02137e-07
4.95809e-07
4.91454e-07
4.79438e-07
4.72677e-07
4.61575e-07
4.59508e-07
4.67072e-07
4.6498e-07
4.65234e-07
4.63264e-07
4.61493e-07
4.62125e-07
4.59725e-07
4.61811e-07
4.59446e-07
4.61257e-07
4.59015e-07
4.60808e-07
4.58679e-07
4.60713e-07
4.58892e-07
4.60829e-07
4.59419e-07
4.61041e-07
4.60128e-07
4.62285e-07
4.61589e-07
4.63433e-07
4.62835e-07
4.64518e-07
4.63941e-07
4.64829e-07
4.6366e-07
4.6325e-07
4.60713e-07
4.60227e-07
4.57326e-07
4.56264e-07
4.53211e-07
4.52112e-07
4.49604e-07
4.48812e-07
4.46816e-07
4.46382e-07
4.45486e-07
4.45479e-07
4.45491e-07
4.45712e-07
4.46319e-07
4.46929e-07
4.47646e-07
4.48331e-07
4.50055e-07
4.50344e-07
4.52355e-07
4.52885e-07
4.54407e-07
4.5446e-07
4.55942e-07
4.55621e-07
4.56872e-07
4.56284e-07
4.57282e-07
4.55831e-07
4.56901e-07
4.55649e-07
4.56674e-07
4.55549e-07
4.56575e-07
4.55092e-07
4.56205e-07
4.54732e-07
4.56161e-07
4.54619e-07
4.55927e-07
4.53282e-07
4.54021e-07
4.54602e-07
4.58202e-07
4.55388e-07
4.57589e-07
4.54e-07
4.52715e-07
4.48901e-07
4.53801e-07
4.58446e-07
4.62021e-07
4.61233e-07
4.63811e-07
4.60169e-07
4.583e-07
4.57634e-07
4.5271e-07
4.50505e-07
4.48996e-07
4.46694e-07
4.45026e-07
4.42737e-07
4.41656e-07
4.39572e-07
4.3917e-07
4.35287e-07
4.39246e-07
4.33525e-07
4.39446e-07
4.30185e-07
4.3979e-07
4.28277e-07
4.40562e-07
4.2658e-07
4.40609e-07
4.26759e-07
4.39903e-07
4.29361e-07
4.37642e-07
4.3254e-07
4.3648e-07
4.35536e-07
4.36115e-07
4.37889e-07
4.3727e-07
4.39668e-07
4.39186e-07
4.41728e-07
4.42032e-07
4.43814e-07
4.44723e-07
4.46395e-07
4.47699e-07
4.49445e-07
4.51388e-07
4.53047e-07
4.54945e-07
4.56471e-07
4.58889e-07
4.60841e-07
4.62458e-07
4.64526e-07
4.66487e-07
4.68329e-07
4.69986e-07
4.721e-07
4.73821e-07
4.76162e-07
4.78206e-07
4.80522e-07
4.82314e-07
4.84209e-07
4.86726e-07
4.88104e-07
4.90283e-07
4.91835e-07
4.94577e-07
4.95657e-07
4.98491e-07
5.00211e-07
5.03235e-07
5.04061e-07
5.07032e-07
5.083e-07
5.11127e-07
5.12409e-07
5.14048e-07
5.15609e-07
5.16163e-07
5.18427e-07
5.18041e-07
5.20792e-07
5.19356e-07
5.22496e-07
5.20458e-07
5.2043e-07
5.24493e-07
5.2029e-07
5.24592e-07
5.20827e-07
5.23329e-07
5.20817e-07
5.21462e-07
5.20634e-07
5.20016e-07
5.21011e-07
5.1924e-07
5.18202e-07
5.15278e-07
5.1406e-07
5.1276e-07
5.12311e-07
5.10939e-07
5.08783e-07
5.06775e-07
5.04813e-07
5.03157e-07
5.0271e-07
5.02079e-07
5.01273e-07
4.97884e-07
4.9669e-07
4.95307e-07
4.93372e-07
4.91545e-07
4.8979e-07
4.87896e-07
4.86354e-07
4.84642e-07
4.83392e-07
4.81745e-07
4.80106e-07
4.78116e-07
4.77283e-07
4.753e-07
4.74254e-07
4.72412e-07
4.70963e-07
4.70664e-07
4.67885e-07
4.68857e-07
4.65598e-07
4.67066e-07
4.63593e-07
4.65593e-07
4.6216e-07
4.63899e-07
4.62772e-07
4.6111e-07
4.648e-07
4.57131e-07
4.68712e-07
4.53854e-07
4.72714e-07
4.51592e-07
4.73832e-07
4.52509e-07
4.73926e-07
4.55538e-07
4.72609e-07
4.59198e-07
4.71108e-07
4.64806e-07
4.71699e-07
4.67673e-07
4.72911e-07
4.74353e-07
4.77068e-07
4.78935e-07
4.81977e-07
4.84404e-07
4.87684e-07
4.89325e-07
4.92389e-07
4.98507e-07
5.00714e-07
5.01586e-07
5.06174e-07
5.03627e-07
5.01919e-07
4.95871e-07
4.87607e-07
4.7344e-07
4.72165e-07
4.68308e-07
4.74293e-07
4.61026e-07
4.66508e-07
4.58866e-07
4.59666e-07
4.58918e-07
4.631e-07
4.60017e-07
4.62175e-07
4.59211e-07
4.61275e-07
4.58856e-07
4.60913e-07
4.58988e-07
4.60906e-07
4.59116e-07
4.61062e-07
4.59539e-07
4.62142e-07
4.61092e-07
4.63185e-07
4.62545e-07
4.64593e-07
4.63964e-07
4.65514e-07
4.64654e-07
4.65488e-07
4.63688e-07
4.63713e-07
4.61411e-07
4.60089e-07
4.57959e-07
4.56532e-07
4.54132e-07
4.52363e-07
4.5007e-07
4.48399e-07
4.47443e-07
4.46423e-07
4.45893e-07
4.45455e-07
4.45839e-07
4.45968e-07
4.4717e-07
4.47551e-07
4.492e-07
4.49998e-07
4.51414e-07
4.52039e-07
4.53213e-07
4.53381e-07
4.54654e-07
4.54446e-07
4.55798e-07
4.55232e-07
4.5646e-07
4.55591e-07
4.56908e-07
4.5623e-07
4.57298e-07
4.56102e-07
4.57238e-07
4.55859e-07
4.56977e-07
4.55645e-07
4.56786e-07
4.55838e-07
4.56926e-07
4.5609e-07
4.5764e-07
4.57412e-07
4.58418e-07
4.56171e-07
4.55216e-07
4.52448e-07
4.53494e-07
4.54083e-07
4.52728e-07
4.51351e-07
4.55585e-07
4.56028e-07
4.59195e-07
4.59389e-07
4.61307e-07
4.58801e-07
4.56187e-07
4.54475e-07
4.53901e-07
4.50464e-07
4.48356e-07
4.45376e-07
4.44172e-07
4.42107e-07
4.41038e-07
4.39043e-07
4.38781e-07
4.37136e-07
4.36187e-07
4.3396e-07
4.3543e-07
4.318e-07
4.36339e-07
4.28544e-07
4.38506e-07
4.26855e-07
4.39754e-07
4.27082e-07
4.39222e-07
4.28531e-07
4.37357e-07
4.31717e-07
4.35279e-07
4.34967e-07
4.34998e-07
4.37284e-07
4.36225e-07
4.39048e-07
4.38859e-07
4.41329e-07
4.41178e-07
4.43456e-07
4.4464e-07
4.46335e-07
4.47889e-07
4.49308e-07
4.51886e-07
4.53621e-07
4.55289e-07
4.56617e-07
4.59042e-07
4.61206e-07
4.62899e-07
4.6482e-07
4.66646e-07
4.6899e-07
4.70497e-07
4.72836e-07
4.74498e-07
4.77302e-07
4.79401e-07
4.8216e-07
4.84307e-07
4.85618e-07
4.86853e-07
4.88723e-07
4.90762e-07
4.92532e-07
4.94912e-07
4.96194e-07
4.99203e-07
5.00612e-07
5.03326e-07
5.04191e-07
5.07133e-07
5.07667e-07
5.10621e-07
5.12268e-07
5.14215e-07
5.16002e-07
5.16329e-07
5.18681e-07
5.18116e-07
5.20971e-07
5.19255e-07
5.22516e-07
5.20361e-07
5.20365e-07
5.24448e-07
5.20126e-07
5.24657e-07
5.20701e-07
5.23487e-07
5.20742e-07
5.21847e-07
5.20754e-07
5.20362e-07
5.20732e-07
5.18974e-07
5.18377e-07
5.15345e-07
5.14356e-07
5.13043e-07
5.12897e-07
5.11512e-07
5.09513e-07
5.07533e-07
5.05249e-07
5.03399e-07
5.02282e-07
5.0141e-07
5.00761e-07
4.97551e-07
4.96301e-07
4.95046e-07
4.9338e-07
4.9187e-07
4.9048e-07
4.88886e-07
4.87072e-07
4.85669e-07
4.84345e-07
4.82896e-07
4.81361e-07
4.79422e-07
4.7824e-07
4.76293e-07
4.75102e-07
4.73107e-07
4.71498e-07
4.70975e-07
4.68105e-07
4.68386e-07
4.65072e-07
4.66603e-07
4.63074e-07
4.65137e-07
4.61788e-07
4.63157e-07
4.61808e-07
4.6026e-07
4.63953e-07
4.56826e-07
4.67239e-07
4.53152e-07
4.6998e-07
4.52291e-07
4.7089e-07
4.53569e-07
4.69176e-07
4.57302e-07
4.67374e-07
4.6206e-07
4.67436e-07
4.65338e-07
4.68611e-07
4.70052e-07
4.72403e-07
4.7273e-07
4.75613e-07
4.77276e-07
4.80115e-07
4.81973e-07
4.85604e-07
4.89429e-07
4.9319e-07
4.94542e-07
4.96225e-07
4.98733e-07
5.02309e-07
4.99602e-07
4.97576e-07
4.91313e-07
4.87453e-07
4.7707e-07
4.7337e-07
4.71106e-07
4.59998e-07
4.58732e-07
4.62822e-07
4.6362e-07
4.6587e-07
4.62418e-07
4.62725e-07
4.59966e-07
4.61739e-07
4.59663e-07
4.61336e-07
4.59133e-07
4.61019e-07
4.58856e-07
4.60881e-07
4.59082e-07
4.61114e-07
4.59718e-07
4.61328e-07
4.60292e-07
4.62303e-07
4.61564e-07
4.63314e-07
4.6267e-07
4.64286e-07
4.63685e-07
4.64495e-07
4.63195e-07
4.62825e-07
4.60688e-07
4.60079e-07
4.57478e-07
4.56296e-07
4.53374e-07
4.52132e-07
4.4971e-07
4.48803e-07
4.47024e-07
4.46609e-07
4.45832e-07
4.45705e-07
4.4575e-07
4.4604e-07
4.46781e-07
4.47299e-07
4.48161e-07
4.48832e-07
4.50391e-07
4.50538e-07
4.5234e-07
4.52885e-07
4.54428e-07
4.5451e-07
4.55986e-07
4.55649e-07
4.56862e-07
4.5614e-07
4.56925e-07
4.55529e-07
4.56671e-07
4.55508e-07
4.56541e-07
4.55388e-07
4.56365e-07
4.55075e-07
4.56146e-07
4.54604e-07
4.56039e-07
4.54284e-07
4.5519e-07
4.52534e-07
4.56641e-07
4.57762e-07
4.58382e-07
4.55344e-07
4.54573e-07
4.51073e-07
4.5053e-07
4.50445e-07
4.52864e-07
4.55813e-07
4.58462e-07
4.57881e-07
4.60083e-07
4.56514e-07
4.55861e-07
4.55043e-07
4.49502e-07
4.49307e-07
4.47389e-07
4.44581e-07
4.4371e-07
4.41455e-07
4.40485e-07
4.38363e-07
4.38161e-07
4.35507e-07
4.3713e-07
4.3327e-07
4.36997e-07
4.30428e-07
4.38024e-07
4.27665e-07
4.40029e-07
4.25736e-07
4.41036e-07
4.25924e-07
4.40603e-07
4.28186e-07
4.38356e-07
4.31811e-07
4.36135e-07
4.3528e-07
4.35645e-07
4.37797e-07
4.36783e-07
4.39734e-07
4.39061e-07
4.41473e-07
4.41763e-07
4.43967e-07
4.44889e-07
4.46318e-07
4.47973e-07
4.4986e-07
4.52175e-07
4.53876e-07
4.5544e-07
4.56893e-07
4.5957e-07
4.61615e-07
4.63181e-07
4.65239e-07
4.67138e-07
4.69208e-07
4.70717e-07
4.72899e-07
4.74687e-07
4.77127e-07
4.79118e-07
4.81132e-07
4.82782e-07
4.84539e-07
4.87111e-07
4.88848e-07
4.91191e-07
4.92685e-07
4.95302e-07
4.96365e-07
4.99701e-07
5.01846e-07
5.05042e-07
5.05148e-07
5.07555e-07
5.08239e-07
5.10276e-07
5.12094e-07
5.14284e-07
5.15847e-07
5.16347e-07
5.18495e-07
5.181e-07
5.2079e-07
5.1933e-07
5.22435e-07
5.20492e-07
5.20412e-07
5.24429e-07
5.20246e-07
5.24525e-07
5.20743e-07
5.23317e-07
5.20807e-07
5.21561e-07
5.20734e-07
5.20273e-07
5.20302e-07
5.18749e-07
5.18165e-07
5.15234e-07
5.14054e-07
5.12574e-07
5.12108e-07
5.11431e-07
5.09462e-07
5.08095e-07
5.06441e-07
5.04921e-07
5.0387e-07
5.03591e-07
5.02474e-07
4.9867e-07
4.97374e-07
4.95988e-07
4.93877e-07
4.92496e-07
4.90912e-07
4.89108e-07
4.87367e-07
4.85588e-07
4.845e-07
4.8296e-07
4.81314e-07
4.79134e-07
4.77857e-07
4.76235e-07
4.7492e-07
4.73021e-07
4.71282e-07
4.70642e-07
4.68209e-07
4.68249e-07
4.6509e-07
4.66923e-07
4.63006e-07
4.65261e-07
4.61576e-07
4.63397e-07
4.61861e-07
4.60358e-07
4.64588e-07
4.55865e-07
4.68837e-07
4.51856e-07
4.72812e-07
4.50065e-07
4.73178e-07
4.51287e-07
4.7162e-07
4.55151e-07
4.69376e-07
4.59575e-07
4.68185e-07
4.64092e-07
4.69086e-07
4.6782e-07
4.71194e-07
4.72162e-07
4.74786e-07
4.76499e-07
4.79416e-07
4.8124e-07
4.8458e-07
4.87397e-07
4.87772e-07
4.93891e-07
4.96645e-07
4.96077e-07
4.99897e-07
4.97907e-07
4.96033e-07
4.9097e-07
4.84782e-07
4.75624e-07
4.7079e-07
4.61295e-07
4.6964e-07
4.64075e-07
4.6762e-07
4.63313e-07
4.62269e-07
4.56008e-07
4.61954e-07
4.59903e-07
4.62231e-07
4.59224e-07
4.61308e-07
4.58885e-07
4.6068e-07
4.58762e-07
4.60773e-07
4.59046e-07
4.60875e-07
4.59161e-07
4.61687e-07
4.60776e-07
4.62856e-07
4.62226e-07
4.64368e-07
4.63891e-07
4.65525e-07
4.64734e-07
4.65617e-07
4.63968e-07
4.63939e-07
4.6145e-07
4.60229e-07
4.58184e-07
4.5678e-07
4.5405e-07
4.52345e-07
4.50222e-07
4.48714e-07
4.47589e-07
4.46583e-07
4.46011e-07
4.45652e-07
4.45996e-07
4.46125e-07
4.47296e-07
4.47669e-07
4.49138e-07
4.50006e-07
4.51387e-07
4.52059e-07
4.53371e-07
4.53543e-07
4.54794e-07
4.54586e-07
4.55911e-07
4.55361e-07
4.56623e-07
4.55895e-07
4.57331e-07
4.56533e-07
4.57453e-07
4.56183e-07
4.57229e-07
4.55865e-07
4.56978e-07
4.55701e-07
4.56923e-07
4.56008e-07
4.57094e-07
4.5648e-07
4.58184e-07
4.57345e-07
4.56316e-07
4.54144e-07
4.5329e-07
4.56912e-07
4.55531e-07
4.52444e-07
4.52074e-07
4.49235e-07
4.5397e-07
4.53791e-07
4.5678e-07
4.56567e-07
4.58295e-07
4.56628e-07
4.54297e-07
4.52675e-07
4.49533e-07
4.47771e-07
4.4646e-07
4.44408e-07
4.42779e-07
4.40827e-07
4.3987e-07
4.37965e-07
4.37815e-07
4.35491e-07
4.3642e-07
4.33071e-07
4.36087e-07
4.30662e-07
4.37149e-07
4.27897e-07
4.39219e-07
4.26149e-07
4.40683e-07
4.26549e-07
4.40144e-07
4.28679e-07
4.38018e-07
4.32212e-07
4.36037e-07
4.35633e-07
4.35601e-07
4.3818e-07
4.3702e-07
4.39928e-07
4.39473e-07
4.41932e-07
4.42169e-07
4.44458e-07
4.45692e-07
4.47398e-07
4.4914e-07
4.50675e-07
4.53313e-07
4.54874e-07
4.56623e-07
4.58149e-07
4.60808e-07
4.62795e-07
4.64428e-07
4.66533e-07
4.68916e-07
4.71069e-07
4.72332e-07
4.7424e-07
4.75961e-07
4.78304e-07
4.79878e-07
4.81654e-07
4.83263e-07
4.84967e-07
4.86766e-07
4.88602e-07
4.90696e-07
4.92306e-07
4.9507e-07
4.9669e-07
4.99685e-07
5.015e-07
5.03999e-07
5.04395e-07
5.07031e-07
5.07653e-07
5.10208e-07
5.12368e-07
5.14196e-07
5.15942e-07
5.16162e-07
5.18531e-07
5.17966e-07
5.20806e-07
5.19213e-07
5.22417e-07
5.20458e-07
5.20478e-07
5.2433e-07
5.20194e-07
5.24476e-07
5.20592e-07
5.23239e-07
5.20464e-07
5.2151e-07
5.20641e-07
5.20516e-07
5.20652e-07
5.1899e-07
5.18214e-07
5.15435e-07
5.14476e-07
5.1293e-07
5.13153e-07
5.11657e-07
5.09891e-07
5.07888e-07
5.06091e-07
5.04464e-07
5.039e-07
5.03119e-07
5.01997e-07
4.98382e-07
4.96814e-07
4.95115e-07
4.93338e-07
4.9131e-07
4.8955e-07
4.87887e-07
4.86124e-07
4.84527e-07
4.83648e-07
4.82499e-07
4.80898e-07
4.78975e-07
4.77964e-07
4.76084e-07
4.75174e-07
4.73157e-07
4.7156e-07
4.70828e-07
4.68241e-07
4.68433e-07
4.65184e-07
4.66743e-07
4.63009e-07
4.65413e-07
4.61413e-07
4.63337e-07
4.61611e-07
4.60163e-07
4.63856e-07
4.56119e-07
4.67887e-07
4.51932e-07
4.71091e-07
4.50276e-07
4.72088e-07
4.5144e-07
4.70227e-07
4.55036e-07
4.67752e-07
4.59506e-07
4.67004e-07
4.6314e-07
4.67714e-07
4.66995e-07
4.69929e-07
4.70389e-07
4.7312e-07
4.74773e-07
4.77507e-07
4.79756e-07
4.82727e-07
4.85081e-07
4.87166e-07
4.90026e-07
4.92952e-07
4.94727e-07
4.97501e-07
4.9457e-07
4.93273e-07
4.87431e-07
4.84674e-07
4.74472e-07
4.71914e-07
4.69884e-07
4.65141e-07
4.65043e-07
4.57576e-07
4.60297e-07
4.63915e-07
4.63862e-07
4.64189e-07
4.60303e-07
4.61804e-07
4.59713e-07
4.61314e-07
4.59062e-07
4.60915e-07
4.58904e-07
4.60854e-07
4.59034e-07
4.60924e-07
4.59719e-07
4.61558e-07
4.60489e-07
4.62421e-07
4.61712e-07
4.63416e-07
4.62679e-07
4.64147e-07
4.63456e-07
4.64256e-07
4.62928e-07
4.62641e-07
4.60645e-07
4.59934e-07
4.57492e-07
4.56414e-07
4.53534e-07
4.52266e-07
4.4989e-07
4.48892e-07
4.47246e-07
4.46858e-07
4.46137e-07
4.45949e-07
4.46002e-07
4.46272e-07
4.47025e-07
4.47577e-07
4.48561e-07
4.49108e-07
4.50754e-07
4.5089e-07
4.52477e-07
4.52968e-07
4.54492e-07
4.54578e-07
4.56021e-07
4.55665e-07
4.56836e-07
4.56009e-07
4.56749e-07
4.5551e-07
4.56736e-07
4.55624e-07
4.56623e-07
4.55446e-07
4.5636e-07
4.55033e-07
4.56026e-07
4.54457e-07
4.55849e-07
4.53771e-07
4.54539e-07
4.55137e-07
4.58412e-07
4.57488e-07
4.57316e-07
4.51794e-07
4.52695e-07
4.51186e-07
4.50657e-07
4.50093e-07
4.51773e-07
4.5368e-07
4.5561e-07
4.55221e-07
4.57173e-07
4.53598e-07
4.52196e-07
4.5135e-07
4.49367e-07
4.47211e-07
4.45626e-07
4.43382e-07
4.42156e-07
4.40381e-07
4.39548e-07
4.37627e-07
4.37577e-07
4.35215e-07
4.36434e-07
4.33058e-07
4.36475e-07
4.3054e-07
4.376e-07
4.27574e-07
4.40126e-07
4.25834e-07
4.41476e-07
4.2604e-07
4.40938e-07
4.28253e-07
4.38603e-07
4.31917e-07
4.36384e-07
4.35677e-07
4.35843e-07
4.38322e-07
4.36981e-07
4.40464e-07
4.39505e-07
4.421e-07
4.42315e-07
4.44508e-07
4.45832e-07
4.47204e-07
4.48851e-07
4.50753e-07
4.53103e-07
4.54751e-07
4.56331e-07
4.57862e-07
4.60231e-07
4.62464e-07
4.63768e-07
4.65994e-07
4.67792e-07
4.69841e-07
4.70976e-07
4.73143e-07
4.74528e-07
4.7721e-07
4.7911e-07
4.81437e-07
4.8345e-07
4.85262e-07
4.87758e-07
4.89708e-07
4.91766e-07
4.9354e-07
4.96526e-07
4.98346e-07
5.01873e-07
5.02707e-07
5.04485e-07
5.04152e-07
5.07016e-07
5.0756e-07
5.1052e-07
5.12113e-07
5.14243e-07
5.15691e-07
5.16255e-07
5.18345e-07
5.18013e-07
5.207e-07
5.1928e-07
5.22379e-07
5.20535e-07
5.20492e-07
5.24336e-07
5.20241e-07
5.24436e-07
5.20621e-07
5.23183e-07
5.20518e-07
5.21377e-07
5.20689e-07
5.20444e-07
5.20584e-07
5.19021e-07
5.18782e-07
5.15415e-07
5.13901e-07
5.12781e-07
5.12162e-07
5.1108e-07
5.08198e-07
5.06432e-07
5.04923e-07
5.03531e-07
5.02801e-07
5.03389e-07
5.03001e-07
4.9969e-07
4.98087e-07
4.96492e-07
4.94456e-07
4.93018e-07
4.91593e-07
4.89874e-07
4.88104e-07
4.86506e-07
4.85295e-07
4.8392e-07
4.82373e-07
4.80285e-07
4.78797e-07
4.77218e-07
4.76094e-07
4.74009e-07
4.723e-07
4.71477e-07
4.68869e-07
4.68874e-07
4.65442e-07
4.67441e-07
4.63077e-07
4.65748e-07
4.61459e-07
4.63575e-07
4.61805e-07
4.60194e-07
4.64385e-07
4.55566e-07
4.68789e-07
4.51e-07
4.72496e-07
4.49159e-07
4.72942e-07
4.50393e-07
4.70821e-07
4.54057e-07
4.68013e-07
4.58641e-07
4.6674e-07
4.62863e-07
4.67257e-07
4.66193e-07
4.69224e-07
4.69832e-07
4.72408e-07
4.73866e-07
4.76259e-07
4.77922e-07
4.8084e-07
4.82861e-07
4.85387e-07
4.884e-07
4.89518e-07
4.90201e-07
4.94219e-07
4.92619e-07
4.90616e-07
4.86465e-07
4.81969e-07
4.74317e-07
4.71364e-07
4.63728e-07
4.64236e-07
4.59401e-07
4.68402e-07
4.64382e-07
4.65115e-07
4.58822e-07
4.59564e-07
4.59065e-07
4.62139e-07
4.59222e-07
4.61311e-07
4.58954e-07
4.60706e-07
4.58747e-07
4.60708e-07
4.59047e-07
4.60947e-07
4.59208e-07
4.61554e-07
4.60671e-07
4.62755e-07
4.62051e-07
4.6414e-07
4.63709e-07
4.65424e-07
4.64743e-07
4.6568e-07
4.64133e-07
4.64002e-07
4.61463e-07
4.60416e-07
4.58263e-07
4.56784e-07
4.54127e-07
4.52526e-07
4.50437e-07
4.49008e-07
4.47787e-07
4.46795e-07
4.46205e-07
4.45889e-07
4.46202e-07
4.46339e-07
4.47459e-07
4.47901e-07
4.49231e-07
4.50093e-07
4.51497e-07
4.52116e-07
4.53513e-07
4.53713e-07
4.54962e-07
4.54775e-07
4.56089e-07
4.55572e-07
4.56865e-07
4.56222e-07
4.57619e-07
4.56608e-07
4.57427e-07
4.56165e-07
4.57205e-07
4.55853e-07
4.57032e-07
4.55785e-07
4.57035e-07
4.5613e-07
4.57197e-07
4.56911e-07
4.5801e-07
4.55493e-07
4.54429e-07
4.53096e-07
4.58207e-07
4.55991e-07
4.53448e-07
4.51616e-07
4.51119e-07
4.48313e-07
4.5254e-07
4.51711e-07
4.54503e-07
4.53894e-07
4.54396e-07
4.52149e-07
4.51493e-07
4.50262e-07
4.48124e-07
4.46125e-07
4.44729e-07
4.42783e-07
4.4157e-07
4.39786e-07
4.38974e-07
4.37204e-07
4.37174e-07
4.34877e-07
4.36092e-07
4.32623e-07
4.36142e-07
4.30131e-07
4.37581e-07
4.27395e-07
4.39786e-07
4.25678e-07
4.41311e-07
4.26102e-07
4.40785e-07
4.28648e-07
4.3854e-07
4.32426e-07
4.3633e-07
4.36046e-07
4.3581e-07
4.38691e-07
4.37479e-07
4.40673e-07
4.39767e-07
4.4259e-07
4.42811e-07
4.45127e-07
4.46352e-07
4.47985e-07
4.49918e-07
4.51795e-07
4.54156e-07
4.55606e-07
4.57329e-07
4.58957e-07
4.61496e-07
4.63634e-07
4.65167e-07
4.67193e-07
4.6904e-07
4.70924e-07
4.72236e-07
4.73736e-07
4.7547e-07
4.77575e-07
4.79705e-07
4.81623e-07
4.83538e-07
4.85322e-07
4.87229e-07
4.88997e-07
4.91522e-07
4.9337e-07
4.96241e-07
4.98049e-07
5.00849e-07
5.02318e-07
5.04319e-07
5.04765e-07
5.07407e-07
5.08307e-07
5.10623e-07
5.12639e-07
5.14194e-07
5.15912e-07
5.15999e-07
5.18452e-07
5.17874e-07
5.20664e-07
5.19177e-07
5.22314e-07
5.2054e-07
5.20553e-07
5.24229e-07
5.20222e-07
5.2434e-07
5.2055e-07
5.23081e-07
5.20371e-07
5.21386e-07
5.20366e-07
5.20077e-07
5.20458e-07
5.19391e-07
5.18715e-07
5.15936e-07
5.14555e-07
5.13099e-07
5.13412e-07
5.11674e-07