/*--------------------------------*- C++ -*----------------------------------*\
| =========                 |                                                 |
| \\      /  F ield         | OpenFOAM: The Open Source CFD Toolbox           |
|  \\    /   O peration     | Version:  v2006                                 |
|   \\  /    A nd           | Website:  www.openfoam.com                      |
|    \\/     M anipulation  |                                                 |
\*---------------------------------------------------------------------------*/
FoamFile
{
    version     2.0;
    format      ascii;
    class       volScalarField;
    location    "1000";
    object      rhoPrime2Mean;
}
// * * * * * * * * * * * * * * * * * * * * * * * * * * * * * * * * * * * * * //

dimensions      [2 -6 0 0 0 0 0];


internalField   nonuniform List<scalar> 
65536
(
2.54327e-07
2.53979e-07
2.53772e-07
2.5405e-07
2.53502e-07
2.54266e-07
2.53385e-07
2.54477e-07
2.54095e-07
2.55712e-07
2.5476e-07
2.56251e-07
2.55448e-07
2.57648e-07
2.56681e-07
2.59323e-07
2.58172e-07
2.60822e-07
2.59549e-07
2.62209e-07
2.60681e-07
2.6332e-07
2.61632e-07
2.64156e-07
2.62588e-07
2.64953e-07
2.63464e-07
2.65352e-07
2.64173e-07
2.65704e-07
2.64963e-07
2.66204e-07
2.65727e-07
2.66879e-07
2.65785e-07
2.65955e-07
2.54038e-07
2.33819e-07
2.27567e-07
2.28363e-07
2.30472e-07
2.37472e-07
2.42429e-07
2.45197e-07
2.45803e-07
2.50509e-07
2.48184e-07
2.44356e-07
2.4486e-07
2.4289e-07
2.40796e-07
2.39618e-07
2.37681e-07
2.36476e-07
2.34948e-07
2.3405e-07
2.32443e-07
2.32298e-07
2.30085e-07
2.3114e-07
2.27966e-07
2.30646e-07
2.25671e-07
2.30963e-07
2.23451e-07
2.31953e-07
2.2182e-07
2.32051e-07
2.21151e-07
2.30745e-07
2.22096e-07
2.28551e-07
2.23755e-07
2.2672e-07
2.25219e-07
2.2572e-07
2.27015e-07
2.26153e-07
2.28078e-07
2.27606e-07
2.29842e-07
2.30078e-07
2.32434e-07
2.33885e-07
2.36424e-07
2.39537e-07
2.43493e-07
2.48535e-07
2.53441e-07
2.58609e-07
2.62847e-07
2.67667e-07
2.72128e-07
2.74407e-07
2.75861e-07
2.75771e-07
2.73873e-07
2.71337e-07
2.69668e-07
2.67457e-07
2.65677e-07
2.63388e-07
2.61131e-07
2.59251e-07
2.58249e-07
2.5754e-07
2.56624e-07
2.56024e-07
2.56072e-07
2.56985e-07
2.57226e-07
2.5818e-07
2.58287e-07
2.59113e-07
2.58887e-07
2.6048e-07
2.60394e-07
2.61568e-07
2.61853e-07
2.62515e-07
2.63466e-07
2.6316e-07
2.64479e-07
2.63536e-07
2.65473e-07
2.63685e-07
2.66165e-07
2.63355e-07
2.60158e-07
2.63691e-07
2.60429e-07
2.63791e-07
2.61334e-07
2.63875e-07
2.62545e-07
2.63179e-07
2.63098e-07
2.63552e-07
2.64625e-07
2.64258e-07
2.64611e-07
2.63776e-07
2.63914e-07
2.641e-07
2.64958e-07
2.65473e-07
2.65397e-07
2.65755e-07
2.65502e-07
2.65067e-07
2.65945e-07
2.68526e-07
2.70382e-07
2.70152e-07
2.73019e-07
2.76669e-07
2.79737e-07
2.83643e-07
2.87023e-07
2.89037e-07
2.89677e-07
2.89172e-07
2.87758e-07
2.85073e-07
2.81325e-07
2.76361e-07
2.71291e-07
2.65992e-07
2.61434e-07
2.56814e-07
2.52486e-07
2.4975e-07
2.46009e-07
2.45267e-07
2.42311e-07
2.4292e-07
2.40052e-07
2.41207e-07
2.38824e-07
2.39587e-07
2.38962e-07
2.36863e-07
2.40488e-07
2.35054e-07
2.42886e-07
2.32937e-07
2.45045e-07
2.31912e-07
2.45875e-07
2.33096e-07
2.45254e-07
2.35125e-07
2.43838e-07
2.3778e-07
2.43255e-07
2.40467e-07
2.43719e-07
2.42739e-07
2.45071e-07
2.4548e-07
2.47178e-07
2.48369e-07
2.50147e-07
2.51511e-07
2.53818e-07
2.55363e-07
2.57536e-07
2.60173e-07
2.60211e-07
2.62909e-07
2.67043e-07
2.62834e-07
2.6041e-07
2.57166e-07
2.51691e-07
2.41932e-07
2.37272e-07
2.33491e-07
2.37629e-07
2.64086e-07
2.68797e-07
2.62644e-07
2.65842e-07
2.62236e-07
2.6493e-07
2.61861e-07
2.64151e-07
2.61416e-07
2.63608e-07
2.60836e-07
2.63156e-07
2.60099e-07
2.62493e-07
2.59399e-07
2.6186e-07
2.58772e-07
2.61155e-07
2.58229e-07
2.60402e-07
2.57636e-07
2.59741e-07
2.57023e-07
2.59015e-07
2.5669e-07
2.5846e-07
2.56558e-07
2.58109e-07
2.55709e-07
2.56662e-07
2.54858e-07
2.56176e-07
2.54355e-07
2.5526e-07
2.54027e-07
2.54692e-07
2.54126e-07
2.53064e-07
2.54278e-07
2.53606e-07
2.53829e-07
2.52931e-07
2.53621e-07
2.53153e-07
2.55921e-07
2.5457e-07
2.53757e-07
2.55358e-07
2.56463e-07
2.55851e-07
2.58038e-07
2.57181e-07
2.59752e-07
2.58622e-07
2.61053e-07
2.59748e-07
2.62112e-07
2.60582e-07
2.6305e-07
2.61516e-07
2.63793e-07
2.62426e-07
2.64478e-07
2.63307e-07
2.6503e-07
2.64213e-07
2.65609e-07
2.65109e-07
2.65608e-07
2.66321e-07
2.67063e-07
2.66711e-07
2.58503e-07
2.45888e-07
2.35438e-07
2.26671e-07
2.2754e-07
2.28266e-07
2.33599e-07
2.37714e-07
2.40412e-07
2.40266e-07
2.43335e-07
2.42041e-07
2.4066e-07
2.40523e-07
2.38778e-07
2.37109e-07
2.36076e-07
2.34286e-07
2.3325e-07
2.32005e-07
2.313e-07
2.2983e-07
2.29824e-07
2.28058e-07
2.28873e-07
2.25986e-07
2.28463e-07
2.23965e-07
2.28908e-07
2.21879e-07
2.29929e-07
2.20483e-07
2.30156e-07
2.2003e-07
2.29063e-07
2.20763e-07
2.27126e-07
2.2213e-07
2.25284e-07
2.23481e-07
2.24442e-07
2.24922e-07
2.24628e-07
2.26087e-07
2.25751e-07
2.27816e-07
2.27704e-07
2.30172e-07
2.31463e-07
2.33898e-07
2.36451e-07
2.40023e-07
2.44596e-07
2.49011e-07
2.5357e-07
2.57182e-07
2.61139e-07
2.64863e-07
2.66587e-07
2.67543e-07
2.67324e-07
2.65554e-07
2.62994e-07
2.61362e-07
2.59257e-07
2.57678e-07
2.55859e-07
2.5433e-07
2.53309e-07
2.52894e-07
2.5259e-07
2.52388e-07
2.52524e-07
2.52288e-07
2.53276e-07
2.53901e-07
2.5544e-07
2.5588e-07
2.56894e-07
2.56842e-07
2.5845e-07
2.58869e-07
2.60745e-07
2.59798e-07
2.61791e-07
2.62686e-07
2.6256e-07
2.64038e-07
2.63482e-07
2.65455e-07
2.64322e-07
2.66743e-07
2.63788e-07
2.61107e-07
2.64216e-07
2.61051e-07
2.64227e-07
2.62069e-07
2.64006e-07
2.63108e-07
2.64549e-07
2.64197e-07
2.63901e-07
2.64426e-07
2.65158e-07
2.65336e-07
2.63884e-07
2.6382e-07
2.63538e-07
2.63891e-07
2.63378e-07
2.63078e-07
2.62846e-07
2.62447e-07
2.62499e-07
2.62557e-07
2.64317e-07
2.65375e-07
2.6458e-07
2.66516e-07
2.69231e-07
2.71714e-07
2.75237e-07
2.78467e-07
2.8047e-07
2.81181e-07
2.81115e-07
2.80237e-07
2.78123e-07
2.74976e-07
2.70707e-07
2.66299e-07
2.61725e-07
2.57355e-07
2.53446e-07
2.49238e-07
2.46729e-07
2.43355e-07
2.42687e-07
2.39955e-07
2.40623e-07
2.38041e-07
2.38845e-07
2.37172e-07
2.37119e-07
2.37478e-07
2.34819e-07
2.38739e-07
2.32967e-07
2.40991e-07
2.31107e-07
2.42833e-07
2.3025e-07
2.4356e-07
2.31027e-07
2.42702e-07
2.32888e-07
2.41191e-07
2.35476e-07
2.40485e-07
2.37725e-07
2.408e-07
2.39941e-07
2.41778e-07
2.41961e-07
2.43502e-07
2.44456e-07
2.45938e-07
2.47027e-07
2.49161e-07
2.50572e-07
2.52215e-07
2.54445e-07
2.55134e-07
2.55873e-07
2.57743e-07
2.55026e-07
2.53858e-07
2.50915e-07
2.46304e-07
2.384e-07
2.3543e-07
2.32689e-07
2.34522e-07
2.58844e-07
2.63215e-07
2.65877e-07
2.65761e-07
2.63233e-07
2.63947e-07
2.62272e-07
2.64001e-07
2.61503e-07
2.6329e-07
2.60671e-07
2.62686e-07
2.59924e-07
2.62137e-07
2.59273e-07
2.61576e-07
2.58584e-07
2.60955e-07
2.58199e-07
2.60331e-07
2.57639e-07
2.59678e-07
2.56943e-07
2.58818e-07
2.56493e-07
2.58025e-07
2.56202e-07
2.55668e-07
2.55693e-07
2.57726e-07
2.53874e-07
2.54802e-07
2.53695e-07
2.55334e-07
2.53628e-07
2.54533e-07
2.52189e-07
2.53626e-07
2.52478e-07
2.51888e-07
2.52089e-07
2.52566e-07
2.53431e-07
2.53203e-07
2.54584e-07
2.54011e-07
2.55604e-07
2.53565e-07
2.56475e-07
2.55296e-07
2.57616e-07
2.56753e-07
2.59285e-07
2.58261e-07
2.60734e-07
2.59496e-07
2.61954e-07
2.60739e-07
2.62992e-07
2.61573e-07
2.63673e-07
2.62509e-07
2.64565e-07
2.6325e-07
2.64883e-07
2.63813e-07
2.65273e-07
2.64594e-07
2.64967e-07
2.62807e-07
2.62918e-07
2.57378e-07
2.48001e-07
2.34344e-07
2.30678e-07
2.27632e-07
2.2966e-07
2.2926e-07
2.30988e-07
2.32742e-07
2.37798e-07
2.38358e-07
2.41142e-07
2.38848e-07
2.37639e-07
2.38571e-07
2.36154e-07
2.34534e-07
2.33876e-07
2.32574e-07
2.31674e-07
2.3047e-07
2.29899e-07
2.28732e-07
2.28668e-07
2.26515e-07
2.28277e-07
2.2524e-07
2.28099e-07
2.23283e-07
2.28241e-07
2.21495e-07
2.28962e-07
2.20068e-07
2.28995e-07
2.19402e-07
2.27832e-07
2.20101e-07
2.2584e-07
2.21195e-07
2.23929e-07
2.22304e-07
2.22951e-07
2.23255e-07
2.22889e-07
2.23899e-07
2.23477e-07
2.24931e-07
2.24821e-07
2.26248e-07
2.2682e-07
2.28851e-07
2.31074e-07
2.33303e-07
2.36302e-07
2.39218e-07
2.42697e-07
2.44586e-07
2.47242e-07
2.4952e-07
2.50092e-07
2.50665e-07
2.50178e-07
2.4842e-07
2.46368e-07
2.44834e-07
2.43502e-07
2.42789e-07
2.42834e-07
2.43151e-07
2.43388e-07
2.44323e-07
2.45639e-07
2.46129e-07
2.46418e-07
2.46806e-07
2.48076e-07
2.49495e-07
2.51001e-07
2.51917e-07
2.53272e-07
2.5396e-07
2.56078e-07
2.57012e-07
2.58691e-07
2.59701e-07
2.60609e-07
2.62047e-07
2.61824e-07
2.63718e-07
2.62988e-07
2.65134e-07
2.63887e-07
2.66398e-07
2.64135e-07
2.60938e-07
2.63456e-07
2.61078e-07
2.64769e-07
2.62747e-07
2.65467e-07
2.64675e-07
2.65968e-07
2.65572e-07
2.65592e-07
2.66596e-07
2.65328e-07
2.65818e-07
2.64231e-07
2.62996e-07
2.62894e-07
2.62891e-07
2.62474e-07
2.60734e-07
2.59958e-07
2.58487e-07
2.60042e-07
2.60346e-07
2.59664e-07
2.58881e-07
2.56811e-07
2.56731e-07
2.57531e-07
2.57794e-07
2.59037e-07
2.61627e-07
2.63085e-07
2.64483e-07
2.65048e-07
2.64958e-07
2.63196e-07
2.61381e-07
2.5882e-07
2.56185e-07
2.52959e-07
2.50483e-07
2.46857e-07
2.44244e-07
2.42905e-07
2.39617e-07
2.40089e-07
2.37293e-07
2.3807e-07
2.35867e-07
2.36666e-07
2.35326e-07
2.35461e-07
2.35705e-07
2.33577e-07
2.36953e-07
2.31772e-07
2.3939e-07
2.30176e-07
2.41349e-07
2.29201e-07
2.4207e-07
2.30091e-07
2.41511e-07
2.3168e-07
2.40212e-07
2.33868e-07
2.39481e-07
2.3636e-07
2.39533e-07
2.37681e-07
2.40058e-07
2.40321e-07
2.41574e-07
2.42333e-07
2.43693e-07
2.44714e-07
2.46368e-07
2.47088e-07
2.48677e-07
2.51627e-07
2.51577e-07
2.51443e-07
2.54421e-07
2.52653e-07
2.50933e-07
2.45049e-07
2.41522e-07
2.37947e-07
2.38073e-07
2.33935e-07
2.38102e-07
2.3865e-07
2.55757e-07
2.58926e-07
2.63442e-07
2.60476e-07
2.63844e-07
2.62069e-07
2.6378e-07
2.61232e-07
2.63236e-07
2.60734e-07
2.6292e-07
2.6003e-07
2.62112e-07
2.59425e-07
2.61619e-07
2.58825e-07
2.6088e-07
2.58081e-07
2.60219e-07
2.5753e-07
2.59486e-07
2.56777e-07
2.58683e-07
2.56221e-07
2.58251e-07
2.5517e-07
2.57893e-07
2.55884e-07
2.5681e-07
2.54745e-07
2.55472e-07
2.53821e-07
2.53519e-07
2.52742e-07
2.53627e-07
2.53955e-07
2.53171e-07
2.53251e-07
2.53122e-07
2.54056e-07
2.53775e-07
2.54548e-07
2.53373e-07
2.5427e-07
2.54166e-07
2.54989e-07
2.55317e-07
2.56043e-07
2.55716e-07
2.57791e-07
2.57103e-07
2.59657e-07
2.58631e-07
2.61063e-07
2.59693e-07
2.6215e-07
2.61151e-07
2.63073e-07
2.6168e-07
2.63805e-07
2.62545e-07
2.64799e-07
2.63533e-07
2.64904e-07
2.64165e-07
2.65405e-07
2.65042e-07
2.66404e-07
2.66193e-07
2.63683e-07
2.57266e-07
2.4266e-07
2.33211e-07
2.30669e-07
2.24426e-07
2.2734e-07
2.27355e-07
2.30918e-07
2.30624e-07
2.33101e-07
2.34523e-07
2.37343e-07
2.36198e-07
2.35094e-07
2.35015e-07
2.34369e-07
2.32921e-07
2.32026e-07
2.30648e-07
2.30105e-07
2.29293e-07
2.28919e-07
2.27825e-07
2.28092e-07
2.26889e-07
2.27138e-07
2.25286e-07
2.27002e-07
2.23826e-07
2.27391e-07
2.21889e-07
2.28537e-07
2.20869e-07
2.28801e-07
2.20533e-07
2.2763e-07
2.21137e-07
2.25903e-07
2.22349e-07
2.24028e-07
2.23708e-07
2.23385e-07
2.24341e-07
2.23357e-07
2.24092e-07
2.23266e-07
2.2461e-07
2.24047e-07
2.249e-07
2.2561e-07
2.25986e-07
2.2633e-07
2.26792e-07
2.27925e-07
2.28164e-07
2.28754e-07
2.29e-07
2.30278e-07
2.31052e-07
2.3154e-07
2.32154e-07
2.33137e-07
2.33729e-07
2.34454e-07
2.35362e-07
2.36394e-07
2.37878e-07
2.38932e-07
2.39967e-07
2.41213e-07
2.42756e-07
2.44011e-07
2.44756e-07
2.46005e-07
2.46301e-07
2.47622e-07
2.48075e-07
2.49464e-07
2.50197e-07
2.51367e-07
2.5232e-07
2.54872e-07
2.56455e-07
2.58474e-07
2.60258e-07
2.60731e-07
2.63122e-07
2.61965e-07
2.64218e-07
2.62558e-07
2.65176e-07
2.63175e-07
2.6653e-07
2.64013e-07
2.60741e-07
2.63443e-07
2.61224e-07
2.65868e-07
2.63477e-07
2.67411e-07
2.66864e-07
2.68583e-07
2.67732e-07
2.68209e-07
2.68122e-07
2.67381e-07
2.66447e-07
2.64183e-07
2.62902e-07
2.62082e-07
2.62079e-07
2.62031e-07
2.60532e-07
2.60285e-07
2.59028e-07
2.57862e-07
2.57744e-07
2.57874e-07
2.57236e-07
2.54575e-07
2.53655e-07
2.5277e-07
2.51208e-07
2.50734e-07
2.50007e-07
2.48877e-07
2.47707e-07
2.46545e-07
2.46256e-07
2.45248e-07
2.44584e-07
2.43379e-07
2.42668e-07
2.41483e-07
2.40957e-07
2.40343e-07
2.39026e-07
2.38953e-07
2.37577e-07
2.37476e-07
2.35972e-07
2.3675e-07
2.35178e-07
2.36381e-07
2.34912e-07
2.35854e-07
2.35706e-07
2.34614e-07
2.36448e-07
2.32569e-07
2.38526e-07
2.30734e-07
2.40203e-07
2.29766e-07
2.41057e-07
2.30357e-07
2.401e-07
2.32007e-07
2.38561e-07
2.3443e-07
2.38237e-07
2.35957e-07
2.38103e-07
2.37753e-07
2.38949e-07
2.38743e-07
2.39839e-07
2.40348e-07
2.41401e-07
2.41941e-07
2.43438e-07
2.44778e-07
2.46103e-07
2.4725e-07
2.47462e-07
2.48004e-07
2.4978e-07
2.47276e-07
2.44904e-07
2.41234e-07
2.40282e-07
2.37155e-07
2.35702e-07
2.30065e-07
2.27478e-07
2.39955e-07
2.50776e-07
2.61891e-07
2.64322e-07
2.64211e-07
2.64906e-07
2.62232e-07
2.63743e-07
2.61506e-07
2.632e-07
2.60898e-07
2.6296e-07
2.59924e-07
2.62103e-07
2.59359e-07
2.61552e-07
2.59038e-07
2.60777e-07
2.58026e-07
2.60232e-07
2.57585e-07
2.59395e-07
2.56744e-07
2.58464e-07
2.56251e-07
2.57601e-07
2.56215e-07
2.56581e-07
2.54872e-07
2.55844e-07
2.54241e-07
2.55897e-07
2.54117e-07
2.55001e-07
2.53112e-07
2.53868e-07
2.52708e-07
2.52902e-07
2.52392e-07
2.52395e-07
2.52274e-07
2.51352e-07
2.51902e-07
2.51877e-07
2.53312e-07
2.52698e-07
2.5512e-07
2.53442e-07
2.55534e-07
2.54795e-07
2.57135e-07
2.56462e-07
2.59025e-07
2.58258e-07
2.60724e-07
2.59947e-07
2.62178e-07
2.6057e-07
2.62753e-07
2.61423e-07
2.63324e-07
2.6242e-07
2.64001e-07
2.62956e-07
2.64411e-07
2.63332e-07
2.64722e-07
2.63413e-07
2.63156e-07
2.59517e-07
2.55926e-07
2.49938e-07
2.4031e-07
2.30304e-07
2.29842e-07
2.27942e-07
2.27409e-07
2.24848e-07
2.27677e-07
2.29985e-07
2.32519e-07
2.32639e-07
2.35445e-07
2.3428e-07
2.34207e-07
2.35068e-07
2.3267e-07
2.32183e-07
2.32256e-07
2.31731e-07
2.31495e-07
2.31098e-07
2.31418e-07
2.31137e-07
2.31724e-07
2.30172e-07
2.33355e-07
2.30808e-07
2.34968e-07
2.30363e-07
2.35897e-07
2.30294e-07
2.37372e-07
2.30591e-07
2.37815e-07
2.3087e-07
2.3665e-07
2.31882e-07
2.35342e-07
2.33225e-07
2.34533e-07
2.34363e-07
2.33925e-07
2.34917e-07
2.34024e-07
2.34967e-07
2.34495e-07
2.35242e-07
2.35109e-07
2.35512e-07
2.35656e-07
2.35895e-07
2.36114e-07
2.36118e-07
2.36688e-07
2.36371e-07
2.36701e-07
2.36634e-07
2.37221e-07
2.37501e-07
2.37292e-07
2.37619e-07
2.38126e-07
2.37905e-07
2.37792e-07
2.37883e-07
2.38094e-07
2.39106e-07
2.39473e-07
2.39953e-07
2.4073e-07
2.41563e-07
2.4284e-07
2.42899e-07
2.43535e-07
2.44714e-07
2.46079e-07
2.46933e-07
2.486e-07
2.49427e-07
2.51367e-07
2.52085e-07
2.54187e-07
2.55517e-07
2.57344e-07
2.5868e-07
2.59131e-07
2.60958e-07
2.60712e-07
2.62672e-07
2.61471e-07
2.63596e-07
2.62632e-07
2.65914e-07
2.64229e-07
2.60797e-07
2.63407e-07
2.6215e-07
2.65965e-07
2.64413e-07
2.68519e-07
2.67197e-07
2.68224e-07
2.67648e-07
2.67341e-07
2.68253e-07
2.67818e-07
2.66207e-07
2.64888e-07
2.63395e-07
2.62784e-07
2.62299e-07
2.61753e-07
2.59847e-07
2.58855e-07
2.57378e-07
2.56588e-07
2.5662e-07
2.57164e-07
2.56862e-07
2.54504e-07
2.5383e-07
2.53502e-07
2.52433e-07
2.52215e-07
2.51736e-07
2.51443e-07
2.51028e-07
2.50437e-07
2.50374e-07
2.49911e-07
2.4928e-07
2.48931e-07
2.48875e-07
2.48329e-07
2.48234e-07
2.47457e-07
2.47248e-07
2.47157e-07
2.45839e-07
2.46566e-07
2.45057e-07
2.45743e-07
2.4431e-07
2.45281e-07
2.43538e-07
2.44541e-07
2.43559e-07
2.43189e-07
2.44625e-07
2.40863e-07
2.46041e-07
2.39151e-07
2.48007e-07
2.37648e-07
2.48691e-07
2.37754e-07
2.48262e-07
2.37997e-07
2.46082e-07
2.3854e-07
2.44296e-07
2.39954e-07
2.42964e-07
2.39461e-07
2.41537e-07
2.4122e-07
2.41675e-07
2.41581e-07
2.42053e-07
2.42403e-07
2.43424e-07
2.43211e-07
2.43544e-07
2.46188e-07
2.46498e-07
2.45511e-07
2.4683e-07
2.44755e-07
2.43159e-07
2.40494e-07
2.38608e-07
2.32244e-07
2.31748e-07
2.31495e-07
2.37757e-07
2.3281e-07
2.49062e-07
2.54478e-07
2.58082e-07
2.58801e-07
2.62812e-07
2.61312e-07
2.63436e-07
2.60882e-07
2.62801e-07
2.60454e-07
2.62323e-07
2.60126e-07
2.61885e-07
2.59297e-07
2.61396e-07
2.58594e-07
2.61108e-07
2.5834e-07
2.60148e-07
2.5745e-07
2.59374e-07
2.56639e-07
2.58401e-07
2.55945e-07
2.57705e-07
2.55404e-07
2.57643e-07
2.54727e-07
2.55632e-07
2.53505e-07
2.53976e-07
2.52635e-07
2.53686e-07
2.52882e-07
2.53077e-07
2.52935e-07
2.52801e-07
2.52742e-07
2.52584e-07
2.53224e-07
2.53173e-07
2.54233e-07
2.5382e-07
2.54405e-07
2.54466e-07
2.55136e-07
2.55197e-07
2.56173e-07
2.55736e-07
2.577e-07
2.56994e-07
2.5939e-07
2.584e-07
2.60753e-07
2.59586e-07
2.62124e-07
2.61277e-07
2.63315e-07
2.61997e-07
2.64122e-07
2.62958e-07
2.64813e-07
2.63539e-07
2.64873e-07
2.64299e-07
2.65242e-07
2.64954e-07
2.65423e-07
2.62472e-07
2.55233e-07
2.42735e-07
2.33705e-07
2.27973e-07
2.28109e-07
2.30362e-07
2.28598e-07
2.26748e-07
2.28464e-07
2.28171e-07
2.30545e-07
2.315e-07
2.34022e-07
2.34032e-07
2.34162e-07
2.34989e-07
2.36503e-07
2.36243e-07
2.36756e-07
2.3672e-07
2.37732e-07
2.38309e-07
2.3933e-07
2.39405e-07
2.40001e-07
2.39868e-07
2.39327e-07
2.39056e-07
2.39885e-07
2.39147e-07
2.40804e-07
2.37818e-07
2.42792e-07
2.37086e-07
2.44222e-07
2.37489e-07
2.44472e-07
2.38837e-07
2.43962e-07
2.40886e-07
2.42628e-07
2.42758e-07
2.42072e-07
2.43571e-07
2.4237e-07
2.43709e-07
2.43742e-07
2.44233e-07
2.4415e-07
2.44692e-07
2.45013e-07
2.45325e-07
2.45945e-07
2.46045e-07
2.46662e-07
2.47077e-07
2.4716e-07
2.46815e-07
2.47514e-07
2.47514e-07
2.4756e-07
2.47758e-07
2.4782e-07
2.47782e-07
2.47261e-07
2.46941e-07
2.46634e-07
2.47381e-07
2.46908e-07
2.46872e-07
2.46299e-07
2.4557e-07
2.45078e-07
2.44335e-07
2.43822e-07
2.44189e-07
2.45135e-07
2.45533e-07
2.46892e-07
2.47508e-07
2.4868e-07
2.49557e-07
2.51237e-07
2.52216e-07
2.53916e-07
2.55611e-07
2.57516e-07
2.59349e-07
2.59243e-07
2.61749e-07
2.60723e-07
2.63376e-07
2.61843e-07
2.65562e-07
2.63846e-07
2.60579e-07
2.6347e-07
2.62177e-07
2.66324e-07
2.65243e-07
2.68271e-07
2.65491e-07
2.66992e-07
2.65874e-07
2.6577e-07
2.66314e-07
2.64695e-07
2.6421e-07
2.62036e-07
2.61516e-07
2.60825e-07
2.61098e-07
2.60671e-07
2.59247e-07
2.58536e-07
2.5792e-07
2.5783e-07
2.58326e-07
2.59497e-07
2.61211e-07
2.59386e-07
2.59422e-07
2.59589e-07
2.59534e-07
2.5993e-07
2.60104e-07
2.59958e-07
2.59676e-07
2.59413e-07
2.59291e-07
2.59238e-07
2.58688e-07
2.58126e-07
2.57889e-07
2.56945e-07
2.57097e-07
2.56224e-07
2.5546e-07
2.55361e-07
2.53949e-07
2.54246e-07
2.52645e-07
2.53396e-07
2.51617e-07
2.52852e-07
2.50902e-07
2.519e-07
2.50668e-07
2.50369e-07
2.51624e-07
2.48083e-07
2.53132e-07
2.45399e-07
2.53797e-07
2.44202e-07
2.53314e-07
2.44386e-07
2.51324e-07
2.45878e-07
2.49668e-07
2.47529e-07
2.48989e-07
2.47826e-07
2.48423e-07
2.48926e-07
2.49483e-07
2.48743e-07
2.49012e-07
2.48106e-07
2.47773e-07
2.46968e-07
2.46777e-07
2.47103e-07
2.47057e-07
2.4613e-07
2.44934e-07
2.44322e-07
2.44733e-07
2.42308e-07
2.40561e-07
2.37628e-07
2.37256e-07
2.34486e-07
2.34675e-07
2.40094e-07
2.28881e-07
2.28086e-07
2.38795e-07
2.49545e-07
2.59845e-07
2.62564e-07
2.64703e-07
2.62483e-07
2.63641e-07
2.61692e-07
2.63229e-07
2.6099e-07
2.63111e-07
2.60358e-07
2.62344e-07
2.59552e-07
2.61713e-07
2.59163e-07
2.60795e-07
2.57994e-07
2.59998e-07
2.57423e-07
2.59179e-07
2.56609e-07
2.58281e-07
2.56124e-07
2.57488e-07
2.55939e-07
2.56571e-07
2.55096e-07
2.5591e-07
2.54585e-07
2.55535e-07
2.53579e-07
2.54234e-07
2.52668e-07
2.53413e-07
2.52448e-07
2.52327e-07
2.51951e-07
2.51879e-07
2.52016e-07
2.51419e-07
2.52121e-07
2.51225e-07
2.52574e-07
2.52088e-07
2.54617e-07
2.53262e-07
2.55143e-07
2.54494e-07
2.56839e-07
2.56296e-07
2.58882e-07
2.58183e-07
2.60638e-07
2.59816e-07
2.61818e-07
2.60347e-07
2.62609e-07
2.61352e-07
2.63146e-07
2.62213e-07
2.63826e-07
2.62938e-07
2.64246e-07
2.62939e-07
2.63985e-07
2.61679e-07
2.59887e-07
2.54933e-07
2.52282e-07
2.42437e-07
2.34074e-07
2.29208e-07
2.28703e-07
2.27127e-07
2.29806e-07
2.2753e-07
2.27466e-07
2.28488e-07
2.30954e-07
2.32273e-07
2.3626e-07
2.36984e-07
2.39673e-07
2.42404e-07
2.41582e-07
2.44003e-07
2.44094e-07
2.43911e-07
2.44495e-07
2.44488e-07
2.4472e-07
2.44232e-07
2.44404e-07
2.43433e-07
2.44547e-07
2.42683e-07
2.44867e-07
2.41315e-07
2.45569e-07
2.39836e-07
2.46773e-07
2.38846e-07
2.47661e-07
2.3913e-07
2.47415e-07
2.40734e-07
2.46123e-07
2.4319e-07
2.4496e-07
2.45373e-07
2.44687e-07
2.46734e-07
2.45448e-07
2.47782e-07
2.46878e-07
2.48068e-07
2.48687e-07
2.49435e-07
2.50113e-07
2.50445e-07
2.51618e-07
2.52187e-07
2.53245e-07
2.53754e-07
2.53976e-07
2.54062e-07
2.55084e-07
2.55497e-07
2.55208e-07
2.55957e-07
2.55731e-07
2.55834e-07
2.54987e-07
2.54947e-07
2.54571e-07
2.55145e-07
2.54192e-07
2.53604e-07
2.52255e-07
2.51735e-07
2.51021e-07
2.49951e-07
2.4888e-07
2.48358e-07
2.48451e-07
2.47288e-07
2.47653e-07
2.47716e-07
2.48435e-07
2.48361e-07
2.49955e-07
2.50471e-07
2.51895e-07
2.5316e-07
2.55242e-07
2.5762e-07
2.57831e-07
2.59927e-07
2.59851e-07
2.62431e-07
2.61438e-07
2.64944e-07
2.63813e-07
2.60545e-07
2.63467e-07
2.62754e-07
2.66961e-07
2.65277e-07
2.66666e-07
2.64736e-07
2.66494e-07
2.65105e-07
2.65024e-07
2.64467e-07
2.63306e-07
2.6277e-07
2.61183e-07
2.60769e-07
2.60614e-07
2.61253e-07
2.6201e-07
2.61602e-07
2.62225e-07
2.62794e-07
2.62896e-07
2.63871e-07
2.65436e-07
2.67293e-07
2.65354e-07
2.65786e-07
2.66006e-07
2.66079e-07
2.66348e-07
2.66817e-07
2.66719e-07
2.66452e-07
2.65892e-07
2.65594e-07
2.65874e-07
2.65107e-07
2.64001e-07
2.63493e-07
2.62551e-07
2.62122e-07
2.6113e-07
2.6009e-07
2.59704e-07
2.58175e-07
2.58254e-07
2.56099e-07
2.56861e-07
2.54454e-07
2.55844e-07
2.53087e-07
2.54836e-07
2.52456e-07
2.53167e-07
2.53442e-07
2.49886e-07
2.55971e-07
2.46704e-07
2.58193e-07
2.45053e-07
2.5838e-07
2.45055e-07
2.56937e-07
2.47182e-07
2.55361e-07
2.49434e-07
2.54119e-07
2.51611e-07
2.53995e-07
2.52893e-07
2.54065e-07
2.54311e-07
2.54901e-07
2.55013e-07
2.54994e-07
2.55078e-07
2.54928e-07
2.5545e-07
2.52655e-07
2.53113e-07
2.51532e-07
2.47811e-07
2.46545e-07
2.43382e-07
2.40473e-07
2.37841e-07
2.36716e-07
2.35578e-07
2.37138e-07
2.27386e-07
2.33592e-07
2.30878e-07
2.40375e-07
2.48831e-07
2.57379e-07
2.55291e-07
2.60565e-07
2.60318e-07
2.63064e-07
2.60721e-07
2.62747e-07
2.60492e-07
2.62134e-07
2.59816e-07
2.61658e-07
2.59258e-07
2.61308e-07
2.5837e-07
2.60766e-07
2.58192e-07
2.59971e-07
2.57249e-07
2.59149e-07
2.5648e-07
2.58161e-07
2.55734e-07
2.57467e-07
2.55362e-07
2.57204e-07
2.54009e-07
2.54844e-07
2.52945e-07
2.54165e-07
2.52513e-07
2.53323e-07
2.52355e-07
2.52628e-07
2.52314e-07
2.52435e-07
2.52314e-07
2.52239e-07
2.52744e-07
2.52657e-07
2.5365e-07
2.53385e-07
2.54138e-07
2.54404e-07
2.5511e-07
2.55018e-07
2.56096e-07
2.55664e-07
2.57626e-07
2.56975e-07
2.59276e-07
2.58281e-07
2.60635e-07
2.59647e-07
2.62299e-07
2.61421e-07
2.63395e-07
2.62176e-07
2.64142e-07
2.62872e-07
2.64494e-07
2.63338e-07
2.64746e-07
2.64153e-07
2.64763e-07
2.63872e-07
2.62269e-07
2.54614e-07
2.43685e-07
2.34336e-07
2.29606e-07
2.31309e-07
2.3261e-07
2.33297e-07
2.30608e-07
2.2739e-07
2.28959e-07
2.29019e-07
2.33207e-07
2.3663e-07
2.41869e-07
2.4455e-07
2.46244e-07
2.47499e-07
2.4692e-07
2.4654e-07
2.46648e-07
2.45896e-07
2.45343e-07
2.44478e-07
2.44036e-07
2.42881e-07
2.42777e-07
2.41401e-07
2.41713e-07
2.39757e-07
2.41173e-07
2.38003e-07
2.41408e-07
2.35984e-07
2.42375e-07
2.34982e-07
2.43347e-07
2.35414e-07
2.43053e-07
2.37011e-07
2.41748e-07
2.39334e-07
2.4088e-07
2.41745e-07
2.41121e-07
2.43537e-07
2.42417e-07
2.44854e-07
2.44709e-07
2.4629e-07
2.4698e-07
2.48405e-07
2.49724e-07
2.50603e-07
2.52346e-07
2.5309e-07
2.5479e-07
2.55627e-07
2.56497e-07
2.57453e-07
2.58609e-07
2.59385e-07
2.59792e-07
2.60887e-07
2.61349e-07
2.61479e-07
2.60892e-07
2.60796e-07
2.60602e-07
2.60686e-07
2.5992e-07
2.59014e-07
2.5848e-07
2.57419e-07
2.56034e-07
2.54701e-07
2.53386e-07
2.52437e-07
2.51248e-07
2.50067e-07
2.49319e-07
2.48557e-07
2.48377e-07
2.47664e-07
2.48546e-07
2.48697e-07
2.50316e-07
2.51813e-07
2.5281e-07
2.55297e-07
2.56452e-07
2.58785e-07
2.58706e-07
2.61843e-07
2.6088e-07
2.64586e-07
2.63593e-07
2.60463e-07
2.63693e-07
2.62996e-07
2.66879e-07
2.64596e-07
2.65796e-07
2.64564e-07
2.65152e-07
2.6334e-07
2.6318e-07
2.62964e-07
2.61945e-07
2.62074e-07
2.60454e-07
2.61122e-07
2.61529e-07
2.63153e-07
2.64333e-07
2.64615e-07
2.6599e-07
2.66711e-07
2.67532e-07
2.68379e-07
2.70068e-07
2.71574e-07
2.69797e-07
2.69545e-07
2.69719e-07
2.69653e-07
2.69657e-07
2.69645e-07
2.6916e-07
2.68676e-07
2.67903e-07
2.67449e-07
2.6712e-07
2.66114e-07
2.64761e-07
2.63814e-07
2.62385e-07
2.61811e-07
2.60235e-07
2.58959e-07
2.57659e-07
2.56017e-07
2.55653e-07
2.53207e-07
2.53683e-07
2.50874e-07
2.52393e-07
2.48967e-07
2.50847e-07
2.47994e-07
2.48693e-07
2.48763e-07
2.45701e-07
2.50809e-07
2.42709e-07
2.52668e-07
2.4106e-07
2.52992e-07
2.41488e-07
2.51753e-07
2.4347e-07
2.50508e-07
2.461e-07
2.5025e-07
2.48361e-07
2.5093e-07
2.50584e-07
2.52159e-07
2.52378e-07
2.53907e-07
2.54645e-07
2.55864e-07
2.56615e-07
2.5771e-07
2.58296e-07
2.58579e-07
2.58532e-07
2.57844e-07
2.5537e-07
2.52943e-07
2.47294e-07
2.42787e-07
2.37988e-07
2.37203e-07
2.35475e-07
2.36528e-07
2.41692e-07
2.36284e-07
2.34067e-07
2.29714e-07
2.38903e-07
2.49995e-07
2.57761e-07
2.63416e-07
2.62111e-07
2.63465e-07
2.61662e-07
2.63124e-07
2.60806e-07
2.62808e-07
2.60385e-07
2.62428e-07
2.59747e-07
2.61683e-07
2.59193e-07
2.60894e-07
2.58023e-07
2.59887e-07
2.57375e-07
2.59138e-07
2.56594e-07
2.58149e-07
2.55957e-07
2.57301e-07
2.55723e-07
2.56552e-07
2.55092e-07
2.55654e-07
2.5418e-07
2.55041e-07
2.53146e-07
2.53796e-07
2.52369e-07
2.52992e-07
2.52141e-07
2.51847e-07
2.51554e-07
2.51438e-07
2.51676e-07
2.51163e-07
2.52011e-07
2.512e-07
2.52417e-07
2.51609e-07
2.54132e-07
2.53087e-07
2.54867e-07
2.54289e-07
2.56642e-07
2.56208e-07
2.58803e-07
2.58134e-07
2.60545e-07
2.5961e-07
2.61517e-07
2.60234e-07
2.62528e-07
2.61358e-07
2.63176e-07
2.62252e-07
2.63788e-07
2.62787e-07
2.63844e-07
2.62199e-07
2.62606e-07
2.58949e-07
2.56285e-07
2.52361e-07
2.45051e-07
2.35555e-07
2.31636e-07
2.27754e-07
2.32468e-07
2.33501e-07
2.32125e-07
2.28964e-07
2.29856e-07
2.32857e-07
2.38652e-07
2.43021e-07
2.47685e-07
2.47867e-07
2.47974e-07
2.48093e-07
2.46802e-07
2.4524e-07
2.44257e-07
2.42512e-07
2.41523e-07
2.40002e-07
2.39163e-07
2.37617e-07
2.37388e-07
2.35682e-07
2.36056e-07
2.33782e-07
2.35446e-07
2.3185e-07
2.35692e-07
2.29586e-07
2.36777e-07
2.28196e-07
2.37487e-07
2.28397e-07
2.37303e-07
2.3003e-07
2.35658e-07
2.32743e-07
2.3465e-07
2.35533e-07
2.3509e-07
2.37817e-07
2.3654e-07
2.39976e-07
2.39021e-07
2.41476e-07
2.42164e-07
2.43609e-07
2.45923e-07
2.46547e-07
2.48731e-07
2.5033e-07
2.5239e-07
2.53886e-07
2.54976e-07
2.56768e-07
2.58273e-07
2.60053e-07
2.61279e-07
2.62925e-07
2.63698e-07
2.64827e-07
2.65157e-07
2.65849e-07
2.66521e-07
2.6709e-07
2.67089e-07
2.6665e-07
2.66148e-07
2.65248e-07
2.63949e-07
2.62046e-07
2.60365e-07
2.58647e-07
2.56821e-07
2.54541e-07
2.53433e-07
2.51223e-07
2.50059e-07
2.48433e-07
2.48945e-07
2.4771e-07
2.48746e-07
2.50104e-07
2.51312e-07
2.52985e-07
2.54347e-07
2.57526e-07
2.57897e-07
2.6101e-07
2.6046e-07
2.64093e-07
2.63468e-07
2.6046e-07
2.63735e-07
2.63251e-07
2.67017e-07
2.64209e-07
2.6521e-07
2.63297e-07
2.63314e-07
2.62067e-07
2.62264e-07
2.62421e-07
2.62039e-07
2.6251e-07
2.6183e-07
2.62855e-07
2.63795e-07
2.65916e-07
2.67378e-07
2.67817e-07
2.69181e-07
2.705e-07
2.71486e-07
2.72968e-07
2.75032e-07
2.77496e-07
2.76061e-07
2.75578e-07
2.75827e-07
2.75369e-07
2.7461e-07
2.74049e-07
2.73195e-07
2.72156e-07
2.70439e-07
2.69078e-07
2.67832e-07
2.66329e-07
2.64291e-07
2.62669e-07
2.60712e-07
2.59784e-07
2.57658e-07
2.55882e-07
2.54388e-07
2.52462e-07
2.51297e-07
2.48809e-07
2.49008e-07
2.45772e-07
2.4759e-07
2.43539e-07
2.45696e-07
2.42309e-07
2.43138e-07
2.43161e-07
2.39417e-07
2.45486e-07
2.36126e-07
2.47772e-07
2.34548e-07
2.47831e-07
2.3505e-07
2.46576e-07
2.37361e-07
2.45192e-07
2.40105e-07
2.44771e-07
2.4293e-07
2.45614e-07
2.45104e-07
2.47102e-07
2.47727e-07
2.49525e-07
2.50624e-07
2.52401e-07
2.53567e-07
2.55585e-07
2.56754e-07
2.58189e-07
2.60327e-07
2.6015e-07
2.5976e-07
2.58957e-07
2.54998e-07
2.48633e-07
2.41989e-07
2.38423e-07
2.3625e-07
2.40039e-07
2.37893e-07
2.36668e-07
2.269e-07
2.35401e-07
2.40853e-07
2.51932e-07
2.55301e-07
2.57732e-07
2.5852e-07
2.6227e-07
2.60353e-07
2.62564e-07
2.60482e-07
2.62155e-07
2.59839e-07
2.61626e-07
2.592e-07
2.61235e-07
2.58312e-07
2.6053e-07
2.5806e-07
2.59911e-07
2.57169e-07
2.58991e-07
2.56337e-07
2.5795e-07
2.55556e-07
2.57235e-07
2.55184e-07
2.56672e-07
2.53514e-07
2.54689e-07
2.52882e-07
2.53951e-07
2.52218e-07
2.52975e-07
2.51921e-07
2.52234e-07
2.51808e-07
2.52086e-07
2.51933e-07
2.51912e-07
2.52348e-07
2.52266e-07
2.53184e-07
2.53044e-07
2.5375e-07
2.54138e-07
2.55064e-07
2.54876e-07
2.56016e-07
2.55586e-07
2.57533e-07
2.56961e-07
2.59219e-07
2.58255e-07
2.60627e-07
2.59803e-07
2.62458e-07
2.61407e-07
2.63316e-07
2.6211e-07
2.6399e-07
2.62702e-07
2.64336e-07
2.63211e-07
2.64538e-07
2.6363e-07
2.63478e-07
2.61205e-07
2.55587e-07
2.44949e-07
2.36153e-07
2.30861e-07
2.33841e-07
2.35014e-07
2.36386e-07
2.36475e-07
2.32066e-07
2.29939e-07
2.3396e-07
2.37863e-07
2.44885e-07
2.467e-07
2.48619e-07
2.4723e-07
2.46335e-07
2.45016e-07
2.42857e-07
2.40761e-07
2.39096e-07
2.37003e-07
2.35524e-07
2.33742e-07
2.32751e-07
2.31227e-07
2.30867e-07
2.29209e-07
2.29526e-07
2.27185e-07
2.28895e-07
2.25281e-07
2.29113e-07
2.23084e-07
2.30138e-07
2.21725e-07
2.31071e-07
2.2219e-07
2.30812e-07
2.23972e-07
2.29214e-07
2.26735e-07
2.28279e-07
2.29347e-07
2.28701e-07
2.31612e-07
2.30832e-07
2.33536e-07
2.33203e-07
2.35765e-07
2.36436e-07
2.38202e-07
2.40145e-07
2.4189e-07
2.43797e-07
2.45434e-07
2.47718e-07
2.49792e-07
2.51485e-07
2.53646e-07
2.55647e-07
2.57585e-07
2.59705e-07
2.61789e-07
2.62959e-07
2.64257e-07
2.65548e-07
2.66987e-07
2.68347e-07
2.69421e-07
2.69749e-07
2.70047e-07
2.70561e-07
2.69855e-07
2.68959e-07
2.67126e-07
2.66248e-07
2.64637e-07
2.63189e-07
2.6012e-07
2.58249e-07
2.552e-07
2.53563e-07
2.51035e-07
2.50656e-07
2.49047e-07
2.48781e-07
2.49367e-07
2.50286e-07
2.51775e-07
2.52556e-07
2.55864e-07
2.56786e-07
2.60442e-07
2.59931e-07
2.63728e-07
2.63284e-07
2.60419e-07
2.6394e-07
2.63489e-07
2.66663e-07
2.63456e-07
2.64199e-07
2.62464e-07
2.62395e-07
2.61384e-07
2.61385e-07
2.61792e-07
2.6256e-07
2.63682e-07
2.63836e-07
2.65676e-07
2.67039e-07
2.70159e-07