/*--------------------------------*- C++ -*----------------------------------*\
| =========                 |                                                 |
| \\      /  F ield         | OpenFOAM: The Open Source CFD Toolbox           |
|  \\    /   O peration     | Version:  v2006                                 |
|   \\  /    A nd           | Website:  www.openfoam.com                      |
|    \\/     M anipulation  |                                                 |
\*---------------------------------------------------------------------------*/
FoamFile
{
    version     2.0;
    format      ascii;
    class       volVectorField;
    location    "1000";
    object      rhoUMean;
}
// * * * * * * * * * * * * * * * * * * * * * * * * * * * * * * * * * * * * * //

dimensions      [1 -2 -1 0 0 0 0];


internalField   nonuniform List<vector> 
65536
(
(-0.00042084 -0.00151738 -4.57702e-19)
(-0.000569246 -0.00462633 -7.37087e-18)
(-0.000843149 -0.00753132 1.46698e-18)
(-0.0012255 -0.0101683 -1.55385e-17)
(-0.00169765 -0.0125181 2.36151e-17)
(-0.00223783 -0.0145352 -1.65135e-17)
(-0.0028022 -0.0161972 2.51736e-17)
(-0.00337327 -0.017423 -1.88579e-17)
(-0.00396368 -0.0183779 3.5633e-17)
(-0.00457028 -0.0191291 2.99165e-18)
(-0.0052135 -0.0196691 9.24197e-18)
(-0.00582779 -0.020018 -3.47652e-18)
(-0.00638608 -0.0201735 -1.31581e-17)
(-0.00687887 -0.0200974 7.77141e-18)
(-0.00728064 -0.0197693 2.12008e-18)
(-0.00758929 -0.0192155 -2.18577e-17)
(-0.00781041 -0.0184771 -1.82657e-18)
(-0.00795148 -0.0176144 -2.70682e-17)
(-0.00802266 -0.0166737 -4.75883e-18)
(-0.0080398 -0.0157064 -5.9726e-17)
(-0.00801638 -0.0147534 -1.90332e-17)
(-0.00797158 -0.0138546 -8.91226e-18)
(-0.00792619 -0.0130167 -1.5938e-17)
(-0.00789687 -0.0122674 -1.13361e-17)
(-0.00789377 -0.011605 -7.70469e-18)
(-0.0079411 -0.0110552 4.46984e-17)
(-0.00803307 -0.0106008 -4.35656e-17)
(-0.0081816 -0.0102375 1.38082e-16)
(-0.00836884 -0.00993242 2.54207e-17)
(-0.00857999 -0.00966309 6.38343e-17)
(-0.00880486 -0.00940122 5.26866e-17)
(-0.00904576 -0.00915886 3.61754e-17)
(-0.00923694 -0.00893329 -2.46061e-17)
(-0.00938589 -0.00872315 1.29344e-16)
(-0.00894139 -0.00816279 -3.68845e-17)
(-0.00749962 -0.00686084 1.08704e-16)
(-0.00472562 -0.00471889 -2.90674e-17)
(-0.000249907 -0.00131181 -1.68278e-16)
(0.0063203 0.00357785 -1.1598e-16)
(0.0151092 0.00912146 -1.35057e-16)
(0.0251032 0.0148234 -9.55236e-17)
(0.0353574 0.0202216 -1.21454e-16)
(0.0455622 0.0250454 -1.07071e-16)
(0.0559707 0.0293376 -1.34233e-16)
(0.06658 0.033112 -1.06647e-16)
(0.0767433 0.036169 -1.29184e-16)
(0.0859801 0.0382438 -1.19118e-16)
(0.0945557 0.0394257 -1.34246e-16)
(0.102986 0.0401465 -1.29574e-16)
(0.110676 0.040254 -1.3774e-16)
(0.11784 0.0396793 -1.35403e-16)
(0.124441 0.0386154 -1.38859e-16)
(0.130562 0.0371132 -1.40033e-16)
(0.136262 0.0352519 -1.47503e-16)
(0.141544 0.0330062 -1.45854e-16)
(0.146419 0.0304492 -1.55635e-16)
(0.150936 0.027599 -1.5263e-16)
(0.15507 0.0244947 -1.61769e-16)
(0.158856 0.0211298 -1.57317e-16)
(0.162305 0.0175529 -1.67707e-16)
(0.165388 0.0138285 -1.64699e-16)
(0.168153 0.00994777 -1.73749e-16)
(0.1706 0.0059112 -1.71751e-16)
(0.172707 0.00178144 -1.80819e-16)
(0.174517 -0.00246382 -1.79721e-16)
(0.176007 -0.00677239 -1.88259e-16)
(0.177201 -0.0111674 -1.88075e-16)
(0.178083 -0.015595 -1.95678e-16)
(0.178707 -0.0200551 -1.96608e-16)
(0.179075 -0.0245604 -2.04048e-16)
(0.179142 -0.0290259 -2.0328e-16)
(0.1789 -0.0334873 -2.13318e-16)
(0.178313 -0.0379 -2.12786e-16)
(0.1774 -0.0422422 -2.26689e-16)
(0.176197 -0.0465464 -2.21208e-16)
(0.174767 -0.0507663 -2.35423e-16)
(0.173091 -0.0549001 -2.30155e-16)
(0.171192 -0.0589478 -2.44621e-16)
(0.169073 -0.0628895 -2.44048e-16)
(0.166744 -0.0666895 -2.53362e-16)
(0.164206 -0.0703887 -2.5332e-16)
(0.16147 -0.073936 -2.64018e-16)
(0.158488 -0.0773212 -2.62941e-16)
(0.1553 -0.0805032 -2.7208e-16)
(0.151919 -0.0835197 -2.69484e-16)
(0.148349 -0.0863603 -2.81075e-16)
(0.14463 -0.0889649 -2.76435e-16)
(0.140746 -0.0913961 -2.89038e-16)
(0.136719 -0.0936005 -2.87005e-16)
(0.132575 -0.0955691 -3.026e-16)
(0.128297 -0.0973414 -2.99398e-16)
(0.123925 -0.0988591 -3.16908e-16)
(0.119442 -0.100153 -3.22127e-16)
(0.114908 -0.101186 -3.2306e-16)
(0.110268 -0.102011 -3.32684e-16)
(0.105595 -0.10255 -3.30837e-16)
(0.100883 -0.102853 -3.35321e-16)
(0.0961296 -0.102914 -3.48725e-16)
(0.0913572 -0.10271 -3.5147e-16)
(0.0865954 -0.102243 -3.55606e-16)
(0.0818261 -0.101535 -3.64913e-16)
(0.0770912 -0.100564 -3.67929e-16)
(0.072378 -0.0993462 -3.73435e-16)
(0.0677319 -0.0978592 -3.81366e-16)
(0.0631441 -0.0961332 -3.75212e-16)
(0.0586322 -0.0941575 -3.89808e-16)
(0.054245 -0.0919446 -3.83174e-16)
(0.0499757 -0.089581 -4.06075e-16)
(0.0457727 -0.0870035 -3.91962e-16)
(0.0416878 -0.0841997 -4.219e-16)
(0.0377518 -0.0811741 -4.06118e-16)
(0.0339844 -0.0779431 -4.33015e-16)
(0.0303763 -0.0745292 -4.21477e-16)
(0.0269553 -0.0709346 -4.40005e-16)
(0.0237181 -0.0671872 -4.38122e-16)
(0.020664 -0.0633329 -4.42043e-16)
(0.0177149 -0.0594491 -4.4715e-16)
(0.015121 -0.0554351 -4.5833e-16)
(0.0129088 -0.0512228 -4.5861e-16)
(0.0107453 -0.0467368 -4.76259e-16)
(0.00879289 -0.0420399 -4.62363e-16)
(0.00702831 -0.037189 -4.8544e-16)
(0.00547458 -0.0321849 -4.65172e-16)
(0.00415016 -0.0270133 -4.95771e-16)
(0.00308075 -0.0215792 -4.66785e-16)
(0.00225782 -0.0158253 -4.88581e-16)
(0.00167265 -0.00971313 -4.90322e-16)
(0.00131293 -0.00326881 -4.77401e-16)
(0.00131732 0.00332656 9.10345e-16)
(0.00167554 0.00976567 8.27043e-16)
(0.00226201 0.0158739 7.75333e-16)
(0.00308377 0.0216261 6.89898e-16)
(0.00415528 0.0270579 6.79298e-16)
(0.00548102 0.0322298 5.93875e-16)
(0.00703577 0.0372335 5.83656e-16)
(0.00880159 0.0420892 5.02334e-16)
(0.0107536 0.0467903 4.97594e-16)
(0.0129173 0.0512764 4.39446e-16)
(0.0151276 0.0554844 4.13352e-16)
(0.0177283 0.0594923 3.63131e-16)
(0.0206787 0.0633733 3.34732e-16)
(0.0237365 0.0672258 2.89493e-16)
(0.0269736 0.0709716 2.69397e-16)
(0.0303956 0.0745649 2.08701e-16)
(0.0340058 0.0779793 1.97479e-16)
(0.0377775 0.0812093 1.41335e-16)
(0.0417163 0.0842371 1.32392e-16)
(0.0458026 0.0870441 7.67697e-17)
(0.0500022 0.0896122 6.97541e-17)
(0.0542802 0.0919895 2.47804e-17)
(0.0586469 0.0941805 1.45779e-17)
(0.0631718 0.0961756 -2.04141e-17)
(0.067761 0.0979034 -2.66976e-17)
(0.0723949 0.099371 -5.21584e-17)
(0.0771221 0.100608 -6.63746e-17)
(0.0818493 0.101568 -8.45966e-17)
(0.0866177 0.102273 -9.93475e-17)
(0.0913769 0.102736 -1.17445e-16)
(0.0961493 0.102938 -1.20668e-16)
(0.100904 0.102877 -1.42175e-16)
(0.105617 0.102574 -1.49742e-16)
(0.11029 0.102036 -1.54795e-16)
(0.11493 0.101207 -1.65333e-16)
(0.119464 0.100174 -1.70969e-16)
(0.123947 0.0988798 -1.76717e-16)
(0.128319 0.0973604 -1.96539e-16)
(0.132598 0.0955883 -1.92627e-16)
(0.13674 0.0936188 -2.09014e-16)
(0.140768 0.0914144 -2.05074e-16)
(0.144652 0.0889808 -2.17207e-16)
(0.14837 0.0863737 -2.10503e-16)
(0.15194 0.0835345 -2.18785e-16)
(0.155317 0.0805193 -2.14613e-16)
(0.158507 0.0773358 -2.18821e-16)
(0.161486 0.0739534 -2.16416e-16)
(0.164221 0.0704107 -2.20271e-16)
(0.166759 0.0667069 -2.17309e-16)
(0.16909 0.0628969 -2.23069e-16)
(0.17121 0.0589541 -2.16865e-16)
(0.173106 0.0549045 -2.27282e-16)
(0.17478 0.0507696 -2.16193e-16)
(0.176214 0.0465511 -2.25788e-16)
(0.177408 0.0422446 -2.14566e-16)
(0.178327 0.0379031 -2.23131e-16)
(0.178909 0.0334888 -2.14839e-16)
(0.179152 0.0290277 -2.21991e-16)
(0.179083 0.0245606 -2.1407e-16)
(0.178715 0.0200559 -2.17204e-16)
(0.178091 0.0155953 -2.1084e-16)
(0.177207 0.0111677 -2.14136e-16)
(0.176013 0.00677153 -2.0671e-16)
(0.174521 0.00246485 -2.10955e-16)
(0.172712 -0.00178393 -2.02565e-16)
(0.170602 -0.00590924 -2.07504e-16)
(0.168156 -0.00994783 -1.98171e-16)
(0.165389 -0.0138273 -2.03426e-16)
(0.162307 -0.0175537 -1.92948e-16)
(0.158857 -0.0211271 -2.00004e-16)
(0.155071 -0.0244946 -1.87816e-16)
(0.150935 -0.0275988 -1.95551e-16)
(0.146418 -0.0304489 -1.82521e-16)
(0.141542 -0.0330056 -1.8992e-16)
(0.136259 -0.035251 -1.80529e-16)
(0.130558 -0.037112 -1.8677e-16)
(0.124436 -0.0386141 -1.79049e-16)
(0.117834 -0.0396765 -1.82847e-16)
(0.110669 -0.0402511 -1.70027e-16)
(0.102976 -0.0401419 -1.81916e-16)
(0.0945447 -0.0394214 -1.66492e-16)
(0.0859709 -0.0382397 -1.80481e-16)
(0.0767309 -0.0361627 -1.6281e-16)
(0.0665666 -0.0331056 -1.85039e-16)
(0.0559602 -0.0293322 -1.49736e-16)
(0.0455538 -0.0250396 -1.77513e-16)
(0.0353464 -0.0202147 -1.52976e-16)
(0.0250963 -0.0148189 -1.81559e-16)
(0.015112 -0.00912143 -1.23174e-16)
(0.00633547 -0.0035868 -1.58465e-16)
(-0.000232104 0.00129497 7.01019e-17)
(-0.00471024 0.00470387 7.61e-17)
(-0.00748702 0.00685098 -8.3096e-17)
(-0.00893355 0.0081554 9.93666e-17)
(-0.00937818 0.00871775 -8.96826e-17)
(-0.00923726 0.00893504 4.23961e-17)
(-0.00904892 0.00916563 -1.19341e-18)
(-0.00881066 0.0094081 -2.99501e-17)
(-0.00858682 0.0096711 -8.11607e-17)
(-0.00837695 0.00994206 -1.77295e-17)
(-0.00819038 0.0102487 -1.44215e-16)
(-0.00804287 0.0106141 4.86575e-17)
(-0.00795142 0.0110699 -4.89773e-17)
(-0.00790509 0.0116221 1.11689e-17)
(-0.00790926 0.0122872 8.42987e-18)
(-0.00794007 0.0130402 1.86191e-17)
(-0.00798692 0.0138814 1.1162e-17)
(-0.00803322 0.0147846 1.71007e-17)
(-0.00805789 0.0157428 6.21152e-17)
(-0.00804277 0.0167164 3.3973e-18)
(-0.00797342 0.017664 2.96782e-17)
(-0.00783413 0.0185347 7.80167e-19)
(-0.00761466 0.0192812 4.00818e-18)
(-0.00730713 0.0198436 6.30539e-18)
(-0.0069065 0.0201809 -1.6359e-17)
(-0.00641455 0.0202664 1.69786e-17)
(-0.00585626 0.0201183 -2.51365e-18)
(-0.00524086 0.0197763 -7.54488e-18)
(-0.00459624 0.0192433 -4.77433e-18)
(-0.00398839 0.0184985 -2.84205e-17)
(-0.003396 0.0175514 5.17688e-18)
(-0.0028227 0.0163319 -2.55813e-17)
(-0.00225615 0.0146784 1.3352e-17)
(-0.00171324 0.0126696 -2.85053e-17)
(-0.00123796 0.0103276 9.17912e-18)
(-0.000852965 0.00769596 -5.73354e-18)
(-0.000575001 0.00479436 1.90103e-18)
(-0.000422087 0.00168678 -4.27292e-18)
(-0.00115459 -0.00136779 -1.70365e-18)
(-0.00122521 -0.00418678 -5.8651e-18)
(-0.00140449 -0.00688612 3.19606e-18)
(-0.00169695 -0.00943333 -5.83098e-18)
(-0.00208785 -0.0117775 5.14602e-18)
(-0.00255224 -0.0138494 -1.17142e-17)
(-0.00306145 -0.0155993 4.38846e-18)
(-0.00362427 -0.0170261 -6.44776e-18)
(-0.00426775 -0.0182456 1.2253e-18)
(-0.00496516 -0.0194 -1.85376e-18)
(-0.00563541 -0.0203595 -2.53058e-19)
(-0.00626994 -0.020989 -5.1797e-18)
(-0.00687066 -0.0213588 5.7741e-18)
(-0.00739654 -0.021468 -2.33496e-18)
(-0.00784711 -0.0213322 -1.44936e-17)
(-0.00820131 -0.0209341 1.37174e-17)
(-0.00847079 -0.0203266 -1.11999e-17)
(-0.00864682 -0.0195342 1.74436e-17)
(-0.00874386 -0.0186072 -2.03123e-17)
(-0.00877881 -0.0176139 2.44409e-17)
(-0.00877912 -0.0165954 -2.69148e-17)
(-0.00875496 -0.0155932 -9.9135e-18)
(-0.00871864 -0.0146456 -1.67586e-17)
(-0.00870712 -0.0137907 1.39983e-17)
(-0.00873117 -0.0130448 -4.18378e-17)
(-0.00880678 -0.0124232 -5.71467e-17)
(-0.00892774 -0.0118928 1.62816e-17)
(-0.00906571 -0.0114342 -4.58427e-17)
(-0.00917974 -0.0109902 2.16885e-17)
(-0.00922656 -0.010516 -7.40894e-17)
(-0.009175 -0.009972 -8.83024e-18)
(-0.00897971 -0.00932289 1.05998e-17)
(-0.00854243 -0.00843697 1.46139e-17)
(-0.00760827 -0.00730965 -2.91043e-17)
(-0.00600484 -0.00591361 3.21053e-17)
(-0.00359137 -0.00420895 5.53833e-17)
(-0.000133056 -0.00202169 3.55978e-18)
(0.00456695 0.000364648 -1.66726e-16)
(0.0114881 0.00371357 -9.17936e-17)
(0.0211573 0.00930571 -9.68353e-17)
(0.032886 0.0162098 -1.22503e-16)
(0.0455159 0.0230831 -1.21392e-16)
(0.0579296 0.0289485 -1.23631e-16)
(0.0697528 0.0336604 -1.17979e-16)
(0.0810468 0.0375529 -1.2602e-16)
(0.0917119 0.040717 -1.28034e-16)
(0.101641 0.0429822 -1.28012e-16)
(0.110838 0.0442748 -1.29846e-16)
(0.119315 0.0447252 -1.29553e-16)
(0.127144 0.0445786 -1.30211e-16)
(0.134428 0.0438858 -1.30616e-16)
(0.141179 0.0426224 -1.36166e-16)
(0.147445 0.0408644 -1.321e-16)
(0.153287 0.0386621 -1.40809e-16)
(0.158705 0.0360906 -1.39224e-16)
(0.163693 0.033199 -1.45353e-16)
(0.168288 0.0299923 -1.41599e-16)
(0.172496 0.0265218 -1.48881e-16)
(0.176339 0.022872 -1.47567e-16)
(0.179805 0.0189749 -1.5514e-16)
(0.182925 0.0149021 -1.52399e-16)
(0.185697 0.0106518 -1.59858e-16)
(0.188132 0.00624527 -1.58581e-16)
(0.19022 0.00175171 -1.66024e-16)
(0.191966 -0.00287636 -1.6548e-16)
(0.193404 -0.00754908 -1.7265e-16)
(0.194493 -0.0123223 -1.72336e-16)
(0.19527 -0.017115 -1.80055e-16)
(0.195721 -0.0219367 -1.80653e-16)
(0.195844 -0.0267779 -1.86522e-16)
(0.195651 -0.0315749 -1.89498e-16)
(0.195157 -0.0363541 -1.95118e-16)
(0.194334 -0.041088 -1.97619e-16)
(0.193274 -0.0457628 -2.04118e-16)
(0.191874 -0.0503883 -2.06209e-16)
(0.190256 -0.0549268 -2.11276e-16)
(0.188328 -0.0593516 -2.14154e-16)
(0.186172 -0.0636841 -2.20945e-16)
(0.183741 -0.0678807 -2.20423e-16)
(0.181065 -0.0719319 -2.29361e-16)
(0.178161 -0.0758464 -2.33833e-16)
(0.175023 -0.0795616 -2.39741e-16)
(0.171675 -0.0831158 -2.45669e-16)
(0.168117 -0.0864778 -2.5186e-16)
(0.164364 -0.0896457 -2.61622e-16)
(0.160432 -0.0926287 -2.61491e-16)
(0.156317 -0.0953545 -2.73634e-16)
(0.152057 -0.0979072 -2.77257e-16)
(0.147631 -0.100208 -2.86634e-16)
(0.143079 -0.102256 -2.83531e-16)
(0.138408 -0.104098 -2.98258e-16)
(0.133618 -0.105652 -3.04945e-16)
(0.128744 -0.106978 -3.07165e-16)
(0.12379 -0.108003 -3.19218e-16)
(0.118763 -0.108828 -3.11878e-16)
(0.113684 -0.109323 -3.36795e-16)
(0.108579 -0.109575 -3.28412e-16)
(0.103439 -0.109563 -3.5034e-16)
(0.0982852 -0.10927 -3.38681e-16)
(0.0931471 -0.108687 -3.75509e-16)
(0.0880201 -0.107857 -3.58707e-16)
(0.0829301 -0.106736 -3.83424e-16)
(0.0778778 -0.105366 -3.6355e-16)
(0.0728942 -0.103702 -3.95284e-16)
(0.0679752 -0.101799 -3.94818e-16)
(0.0631305 -0.0996484 -4.11057e-16)
(0.058388 -0.0972553 -4.12894e-16)
(0.0537592 -0.0946458 -4.29173e-16)
(0.0493364 -0.0917624 -4.30372e-16)
(0.0450788 -0.0886906 -4.45786e-16)
(0.0409242 -0.0853968 -4.5354e-16)
(0.0368997 -0.0818388 -4.57523e-16)
(0.0330249 -0.0780439 -4.69724e-16)
(0.0293161 -0.0740043 -4.67097e-16)
(0.0257577 -0.069708 -4.83666e-16)
(0.0223699 -0.0650968 -4.8703e-16)
(0.019269 -0.0600942 -4.97446e-16)
(0.0163505 -0.0551476 -4.96206e-16)
(0.0136711 -0.0505231 -5.13245e-16)
(0.0113788 -0.0457757 -5.09087e-16)
(0.00928652 -0.0407622 -5.14489e-16)
(0.00742259 -0.0355434 -5.12968e-16)
(0.00582294 -0.0302032 -5.23754e-16)
(0.00449483 -0.0247953 -5.16524e-16)
(0.00347176 -0.0193477 -5.28098e-16)
(0.00273923 -0.0138881 -5.12369e-16)
(0.00231594 -0.00840227 -5.42171e-16)
(0.00216347 -0.00280843 -5.19236e-16)
(0.00216126 0.00285755 9.22928e-16)
(0.00231337 0.00844093 7.84328e-16)
(0.00274166 0.0139254 6.65767e-16)
(0.0034733 0.0193874 5.71502e-16)
(0.00450048 0.024839 4.76666e-16)
(0.00582941 0.0302514 3.8221e-16)
(0.00743298 0.035595 3.02251e-16)
(0.00929943 0.0408204 2.24699e-16)
(0.0113927 0.0458365 1.50546e-16)
(0.0136845 0.0505803 8.65189e-17)
(0.0163681 0.0552011 2.42342e-17)
(0.0192823 0.0601482 -2.09347e-18)
(0.0223816 0.0651418 -5.09716e-17)
(0.025767 0.0697514 -8.0429e-17)
(0.0293271 0.0740474 -1.25592e-16)
(0.0330371 0.0780864 -1.32582e-16)
(0.0369119 0.0818797 -1.57037e-16)
(0.0409349 0.0854384 -1.71359e-16)
(0.0450924 0.0887354 -1.84587e-16)
(0.0493525 0.0918137 -2.07795e-16)
(0.0537768 0.0946914 -2.1092e-16)
(0.0584132 0.0973202 -2.3216e-16)
(0.0631547 0.0996914 -2.31161e-16)
(0.068013 0.101846 -2.4977e-16)
(0.0729303 0.103762 -2.47202e-16)
(0.0779053 0.105402 -2.77912e-16)
(0.0829669 0.106777 -2.5422e-16)
(0.0880514 0.107898 -2.77641e-16)
(0.0931762 0.108722 -2.5509e-16)
(0.0983125 0.109299 -2.89738e-16)
(0.103465 0.109589 -2.71622e-16)
(0.108606 0.109598 -2.90197e-16)
(0.113711 0.109346 -2.74573e-16)
(0.118791 0.108852 -2.95492e-16)
(0.123817 0.108026 -2.80085e-16)
(0.128771 0.106999 -2.87836e-16)
(0.133646 0.105672 -2.80952e-16)
(0.138434 0.104115 -2.83516e-16)
(0.143108 0.102274 -2.88512e-16)
(0.147659 0.100224 -2.79907e-16)
(0.152084 0.0979211 -2.79825e-16)
(0.156344 0.0953691 -2.78235e-16)
(0.160457 0.0926427 -2.79566e-16)
(0.164393 0.0896582 -2.74323e-16)
(0.168143 0.0864847 -2.73601e-16)
(0.171706 0.0831258 -2.74938e-16)
(0.175052 0.0795651 -2.69345e-16)
(0.17819 0.0758438 -2.71275e-16)
(0.181091 0.0719317 -2.63847e-16)
(0.183759 0.0678866 -2.67082e-16)
(0.186191 0.0636913 -2.57143e-16)
(0.188348 0.0593594 -2.58268e-16)
(0.190266 0.0549294 -2.51117e-16)
(0.191898 0.0503956 -2.51341e-16)
(0.193283 0.0457655 -2.42861e-16)
(0.194355 0.0410922 -2.45341e-16)
(0.195167 0.0363571 -2.38629e-16)
(0.195665 0.0315773 -2.38447e-16)
(0.195856 0.0267808 -2.3156e-16)
(0.195731 0.021938 -2.32204e-16)
(0.195282 0.0171171 -2.2433e-16)
(0.194501 0.0123232 -2.27149e-16)
(0.193413 0.00755104 -2.18504e-16)
(0.191974 0.00287588 -2.21084e-16)
(0.190227 -0.00174905 -2.12509e-16)
(0.188137 -0.00624715 -2.15726e-16)
(0.185702 -0.010652 -2.06763e-16)
(0.18293 -0.0149033 -2.10482e-16)
(0.179807 -0.0189743 -2.00398e-16)
(0.176341 -0.0228751 -2.04381e-16)
(0.172499 -0.0265221 -1.96632e-16)
(0.168289 -0.0299923 -1.99163e-16)
(0.163694 -0.0331989 -1.91797e-16)
(0.158704 -0.0360902 -1.94073e-16)
(0.153286 -0.0386614 -1.87858e-16)
(0.147443 -0.0408633 -1.92088e-16)
(0.141176 -0.0426203 -1.83071e-16)
(0.134423 -0.0438842 -1.85548e-16)
(0.127138 -0.0445752 -1.83524e-16)
(0.119307 -0.0447217 -1.79672e-16)
(0.110828 -0.0442705 -1.76386e-16)
(0.101629 -0.0429761 -1.76847e-16)
(0.0917002 -0.0407103 -1.72325e-16)
(0.0810324 -0.0375454 -1.74909e-16)
(0.0697358 -0.0336519 -1.76754e-16)
(0.0579125 -0.0289392 -1.74671e-16)
(0.0455028 -0.0230758 -1.63593e-16)
(0.0328861 -0.0162143 -1.68537e-16)
(0.0211699 -0.00932384 -1.75569e-16)
(0.0115082 -0.00373677 -1.96808e-16)
(0.00458179 -0.000374004 -1.7977e-17)
(-0.000125279 0.00202092 -2.8054e-17)
(-0.0035846 0.0042059 -4.47024e-17)
(-0.00599899 0.00591104 -8.2962e-18)
(-0.00760356 0.00730755 3.11357e-17)
(-0.00853775 0.00843649 -5.97629e-18)
(-0.008978 0.00932023 -7.64496e-18)
(-0.00917396 0.00997147 1.02684e-17)
(-0.00922752 0.0105181 7.12598e-17)
(-0.00918252 0.0109949 -1.8521e-17)
(-0.00907021 0.011441 4.64434e-17)
(-0.0089337 0.0119018 -1.54323e-17)
(-0.0088135 0.0124337 5.65195e-17)
(-0.0087386 0.0130574 4.27791e-17)
(-0.00871558 0.013806 -1.65076e-17)
(-0.00872916 0.0146652 2.80462e-17)
(-0.00876752 0.0156182 5.4442e-18)
(-0.00879383 0.0166263 2.28604e-17)
(-0.0087957 0.0176512 -2.22612e-17)
(-0.00876284 0.018652 1.75254e-17)
(-0.0086678 0.019587 -1.44682e-17)
(-0.00849401 0.0203884 6.41689e-18)
(-0.00822621 0.021005 -8.26587e-18)
(-0.00787363 0.0214127 6.3657e-18)
(-0.0074238 0.0215576 8.61792e-19)
(-0.00689897 0.0214584 -5.86476e-18)
(-0.00629865 0.0210976 2.19865e-18)
(-0.00566408 0.0204771 -4.61469e-18)
(-0.00499254 0.0195235 -8.26354e-18)
(-0.00429298 0.0183764 -1.07024e-17)
(-0.00364791 0.0171641 1.94964e-18)
(-0.00308207 0.0157415 -5.4763e-18)
(-0.00256941 0.0139965 -3.972e-19)
(-0.00210214 0.0119295 -8.51609e-18)
(-0.00170849 0.00958866 -1.10392e-18)
(-0.00141246 0.00704389 -7.43229e-18)
(-0.0012305 0.00434886 4.74057e-19)
(-0.00115708 0.00152764 -3.31681e-18)
(-0.00180325 -0.001255 -2.54856e-18)
(-0.00188427 -0.00394504 -3.52917e-18)
(-0.00206839 -0.00665803 -2.03008e-18)
(-0.00234868 -0.00927803 -5.42422e-18)
(-0.00269816 -0.0116814 -1.85434e-18)
(-0.00309702 -0.0138053 -4.79104e-18)
(-0.00352525 -0.0156455 -2.66676e-19)
(-0.00402593 -0.0171898 -3.96975e-18)
(-0.00462892 -0.0184756 -9.07428e-18)
(-0.00525995 -0.0195428 -4.80564e-18)
(-0.00588303 -0.0204313 9.69209e-18)
(-0.00646869 -0.0210931 -1.53752e-19)
(-0.00700448 -0.0214861 -3.391e-18)
(-0.00748468 -0.0216403 -7.38994e-18)
(-0.00789408 -0.0215723 -5.34442e-18)
(-0.00821865 -0.0212475 -1.06162e-17)
(-0.00848277 -0.0207292 -1.13108e-17)
(-0.00868047 -0.0200494 1.79032e-18)
(-0.00882557 -0.0192405 -2.74541e-17)
(-0.00891571 -0.0183259 1.97715e-18)
(-0.00893287 -0.0173145 -1.01932e-17)
(-0.00889865 -0.0162708 3.80741e-18)
(-0.00886647 -0.0152635 1.6948e-17)
(-0.00885238 -0.0143297 -3.14647e-18)
(-0.00886967 -0.0134866 1.51243e-17)
(-0.00892999 -0.012762 -1.90082e-17)
(-0.00902328 -0.0121548 -2.71405e-17)
(-0.00912576 -0.0116295 -2.51714e-17)
(-0.00915688 -0.0110946 -1.97827e-17)
(-0.00910764 -0.0105401 1.25529e-17)
(-0.0089405 -0.00991849 -6.64668e-18)
(-0.00859951 -0.009236 3.18516e-17)
(-0.00788198 -0.00841922 -8.30746e-18)
(-0.00654391 -0.0072655 -2.46983e-17)
(-0.00428594 -0.00568261 -1.64232e-17)
(-0.00068561 -0.00334273 1.51735e-17)
(0.0047667 1.44406e-05 -3.59898e-17)
(0.0122909 0.00435326 -1.16984e-16)
(0.0213167 0.00882548 -9.01547e-17)
(0.0315965 0.0131657 -1.29419e-16)
(0.0434468 0.0186796 -1.21845e-16)
(0.0567809 0.0254513 -1.25028e-16)
(0.0706306 0.0322868 -1.12369e-16)
(0.083569 0.0377756 -1.14771e-16)
(0.0952223 0.0417633 -1.10809e-16)
(0.105903 0.0447661 -1.07611e-16)
(0.115814 0.0468768 -1.09318e-16)
(0.125051 0.0480317 -1.06222e-16)
(0.133505 0.0483694 -1.03295e-16)
(0.141255 0.0480331 -1.06615e-16)
(0.148479 0.0469804 -1.01146e-16)
(0.155198 0.0454349 -1.05558e-16)
(0.161396 0.0433983 -1.0266e-16)
(0.167152 0.0409698 -1.02244e-16)
(0.172477 0.038145 -9.60036e-17)
(0.177385 0.0349948 -9.69979e-17)
(0.18189 0.0315301 -9.82905e-17)
(0.186001 0.027798 -9.71002e-17)
(0.189711 0.0237967 -9.59271e-17)
(0.193045 0.0195809 -9.58143e-17)
(0.195981 0.0152087 -9.4923e-17)
(0.198562 0.010684 -9.6094e-17)
(0.200802 0.00600849 -9.58799e-17)
(0.202675 0.00124679 -9.70487e-17)
(0.204207 -0.00362551 -9.64923e-17)
(0.205392 -0.00855131 -9.84312e-17)
(0.20625 -0.0135463 -9.80001e-17)
(0.206747 -0.0185602 -9.98382e-17)
(0.206945 -0.023585 -1.00045e-16)
(0.206775 -0.0286207 -1.0325e-16)
(0.206315 -0.033604 -1.03467e-16)
(0.20554 -0.0385566 -1.0727e-16)
(0.204453 -0.0434593 -1.06905e-16)
(0.203111 -0.0482865 -1.06549e-16)
(0.201434 -0.0530509 -1.11621e-16)
(0.199507 -0.0577099 -1.15207e-16)
(0.197275 -0.0622424 -1.15826e-16)
(0.194797 -0.066666 -1.20239e-16)
(0.192039 -0.0709316 -1.18089e-16)
(0.189046 -0.0750269 -1.25189e-16)
(0.185828 -0.0789835 -1.18639e-16)
(0.182351 -0.0827346 -1.29273e-16)
(0.178665 -0.0863124 -1.21351e-16)
(0.174764 -0.0896508 -1.29195e-16)
(0.170698 -0.0928109 -1.26096e-16)
(0.166426 -0.0957509 -1.33802e-16)
(0.161986 -0.0984162 -1.36178e-16)
(0.157423 -0.100904 -1.45489e-16)
(0.152695 -0.103107 -1.43431e-16)
(0.147859 -0.105062 -1.5922e-16)
(0.142916 -0.106796 -1.49055e-16)
(0.13786 -0.108228 -1.63253e-16)
(0.132731 -0.10943 -1.59809e-16)
(0.127531 -0.110325 -1.73811e-16)
(0.122272 -0.111009 -1.77597e-16)
(0.116967 -0.111353 -1.92366e-16)
(0.111647 -0.111461 -1.98295e-16)
(0.106306 -0.111293 -2.02051e-16)
(0.100962 -0.110837 -2.08628e-16)
(0.0956434 -0.110102 -2.11449e-16)
(0.090346 -0.109113 -2.25392e-16)
(0.085096 -0.107832 -2.28832e-16)
(0.0798966 -0.106298 -2.57848e-16)
(0.0747773 -0.104469 -2.56622e-16)
(0.0697312 -0.102382 -2.75221e-16)
(0.0647482 -0.0999769 -2.783e-16)
(0.0598386 -0.097222 -2.92786e-16)
(0.0550241 -0.0942568 -3.00398e-16)
(0.0504063 -0.0911733 -3.26581e-16)
(0.0460256 -0.0879629 -3.16503e-16)
(0.0418431 -0.0845501 -3.57826e-16)
(0.0378304 -0.080913 -3.49579e-16)
(0.0339859 -0.0770797 -3.86996e-16)
(0.0303343 -0.0730549 -3.90796e-16)
(0.0268813 -0.0688467 -4.17255e-16)
(0.023656 -0.0644309 -4.29058e-16)
(0.0206341 -0.0599016 -4.49847e-16)
(0.0177433 -0.0553842 -4.62558e-16)
(0.0151619 -0.05069 -4.61738e-16)
(0.0128957 -0.0457238 -4.77708e-16)
(0.0108181 -0.0405488 -5.00955e-16)
(0.00896534 -0.0352318 -5.07632e-16)
(0.00737819 -0.0298383 -5.15536e-16)
(0.0060564 -0.024407 -5.1314e-16)
(0.00503824 -0.0189457 -5.21232e-16)
(0.00429062 -0.0134887 -5.01214e-16)
(0.00383982 -0.00805609 -5.24727e-16)
(0.00364976 -0.00266323 -5.22064e-16)
(0.00364862 0.00270315 8.82174e-16)
(0.00383713 0.00809498 6.56484e-16)
(0.00429528 0.0135276 4.76161e-16)
(0.00503935 0.0189864 3.22187e-16)
(0.00606438 0.0244496 1.57161e-16)
(0.00738494 0.0298878 3.4644e-17)
(0.00897854 0.0352893 -7.89319e-17)
(0.0108326 0.0406163 -1.72873e-16)
(0.0129128 0.0457938 -2.62522e-16)
(0.0151765 0.0507586 -3.35493e-16)
(0.0177573 0.0554455 -3.69588e-16)
(0.0206478 0.0599587 -4.33253e-16)
(0.0236738 0.0644861 -4.75697e-16)
(0.0268975 0.0689032 -5.06677e-16)
(0.0303503 0.0731104 -5.40902e-16)
(0.0340065 0.0771375 -5.53998e-16)
(0.0378581 0.0809767 -5.94368e-16)
(0.041874 0.0846141 -5.84577e-16)
(0.0460559 0.088022 -6.22536e-16)
(0.0504324 0.0912269 -6.01913e-16)
(0.0550495 0.0942973 -6.19195e-16)
(0.0598606 0.0972633 -6.09889e-16)
(0.0647616 0.100001 -6.0413e-16)
(0.0697627 0.102421 -5.94243e-16)
(0.0748042 0.104516 -5.89719e-16)
(0.0799108 0.106325 -5.73004e-16)
(0.0851193 0.107864 -5.75853e-16)
(0.0903662 0.109146 -5.57293e-16)
(0.0956635 0.110133 -5.50971e-16)
(0.100983 0.110868 -5.31805e-16)
(0.106328 0.111322 -5.16431e-16)
(0.11167 0.111488 -4.98096e-16)
(0.116991 0.11138 -4.81804e-16)
(0.122299 0.111038 -4.74271e-16)
(0.127559 0.110353 -4.56791e-16)
(0.132758 0.109456 -4.48123e-16)
(0.137888 0.108255 -4.26337e-16)
(0.142944 0.10682 -4.18327e-16)
(0.147888 0.105085 -3.86754e-16)
(0.152721 0.10313 -3.87129e-16)
(0.157451 0.100927 -3.63967e-16)
(0.162018 0.0984389 -3.61778e-16)
(0.166455 0.0957688 -3.43217e-16)
(0.170723 0.092829 -3.37646e-16)
(0.174789 0.0896703 -3.20196e-16)
(0.178687 0.0863279 -3.15794e-16)
(0.182361 0.0827508 -2.95111e-16)
(0.185838 0.0790045 -2.94716e-16)
(0.189075 0.0750515 -2.76194e-16)
(0.192072 0.0709455 -2.73081e-16)
(0.194831 0.0666773 -2.59539e-16)
(0.197308 0.0622552 -2.5488e-16)
(0.199531 0.0577156 -2.44378e-16)
(0.201466 0.0530599 -2.40024e-16)
(0.203132 0.0482926 -2.34818e-16)
(0.204479 0.0434645 -2.27705e-16)
(0.205562 0.0385622 -2.18444e-16)
(0.206333 0.0336067 -2.16051e-16)
(0.206798 0.0286242 -2.08749e-16)
(0.206957 0.0235862 -2.07781e-16)
(0.20677 0.0185622 -2.00169e-16)
(0.206258 0.0135473 -1.99193e-16)
(0.205413 0.00855112 -1.9161e-16)
(0.204213 0.00362718 -1.9186e-16)
(0.20269 -0.00124895 -1.8507e-16)
(0.200807 -0.00600628 -1.85441e-16)
(0.198573 -0.0106843 -1.79894e-16)
(0.195986 -0.015207 -1.8117e-16)
(0.193052 -0.0195819 -1.75622e-16)
(0.189716 -0.0237945 -1.76693e-16)
(0.186007 -0.0277982 -1.71284e-16)
(0.181894 -0.0315303 -1.72474e-16)
(0.177389 -0.0349949 -1.69915e-16)
(0.172479 -0.0381448 -1.74676e-16)
(0.167153 -0.0409695 -1.64874e-16)
(0.161395 -0.0433974 -1.69441e-16)
(0.155196 -0.0454339 -1.65302e-16)
(0.148476 -0.0469779 -1.72321e-16)
(0.141251 -0.0480307 -1.67262e-16)
(0.1335 -0.0483656 -1.73877e-16)
(0.125042 -0.0480272 -1.72158e-16)
(0.115804 -0.0468714 -1.72306e-16)
(0.105892 -0.0447599 -1.76266e-16)
(0.0952081 -0.041755 -1.76368e-16)
(0.0835498 -0.0377645 -1.74557e-16)
(0.0706128 -0.0322766 -1.77468e-16)
(0.05677 -0.0254506 -1.58195e-16)
(0.0434453 -0.0186888 -1.73039e-16)
(0.0315959 -0.0131714 -1.45927e-16)
(0.0213184 -0.00882373 -2.07387e-16)
(0.012301 -0.00435709 -1.13868e-16)
(0.00478623 -2.95926e-05 -5.84137e-17)
(-0.000664199 0.00332557 -3.30277e-17)
(-0.00426937 0.0056682 2.81568e-17)
(-0.00653092 0.00725593 1.85605e-17)
(-0.00787249 0.00841197 1.28203e-17)
(-0.008593 0.00923371 -3.39221e-17)
(-0.0089383 0.00991864 7.30561e-18)
(-0.00910656 0.0105415 -1.20165e-17)
(-0.00915719 0.0110971 1.53811e-17)
(-0.00912711 0.0116335 3.31502e-17)
(-0.00902592 0.0121603 4.20893e-17)
(-0.00893329 0.0127686 6.07588e-18)
(-0.00887345 0.0134948 -1.18656e-17)
(-0.00885715 0.0143411 -6.92515e-18)
(-0.00887345 0.0152806 -6.03286e-18)
(-0.00890857 0.016294 1.87568e-18)
(-0.00894545 0.0173445 3.21841e-18)
(-0.0089301 0.0183627 -1.10507e-18)
(-0.00884233 0.0192852 2.18313e-17)
(-0.0086996 0.0201029 -2.31971e-18)
(-0.00850387 0.0207918 6.8587e-18)
(-0.0082416 0.0213192 6.46323e-18)
(-0.00791831 0.0216532 -1.49412e-18)
(-0.00750962 0.0217299 1.39259e-18)
(-0.00703001 0.0215845 -1.53005e-18)
(-0.00649475 0.0212003 -1.26185e-17)
(-0.00590895 0.0205463 -1.1688e-17)
(-0.00528493 0.0196656 -5.4791e-18)
(-0.00465241 0.0186061 3.63247e-18)
(-0.00404767 0.0173266 -8.95626e-19)
(-0.00354524 0.0157891 -4.80097e-18)
(-0.00311394 0.013954 -3.81498e-18)
(-0.00271201 0.0118337 -2.28683e-18)
(-0.00235948 0.00943281 -1.07163e-18)
(-0.00207616 0.00681459 -2.29354e-18)
(-0.00188918 0.00410238 -1.83242e-18)
(-0.00180494 0.00141406 -2.63674e-18)
(-0.0024461 -0.00122962 -2.27308e-18)
(-0.00251805 -0.00383093 -2.56429e-18)
(-0.0026673 -0.00638303 -1.05583e-18)
(-0.00286838 -0.00880762 -5.25249e-18)
(-0.00312141 -0.0110653 -4.66645e-18)
(-0.00343849 -0.0131315 -5.14773e-18)
(-0.0038194 -0.0150097 -5.82746e-18)
(-0.00429254 -0.0166812 -5.76449e-18)
(-0.00486699 -0.0180975 2.32254e-18)
(-0.00547569 -0.0192608 -7.3876e-18)
(-0.00603868 -0.0201789 -1.39907e-18)
(-0.00655943 -0.0208391 -3.42723e-18)
(-0.00704622 -0.0212512 -2.94986e-18)
(-0.0074706 -0.0214086 3.87362e-19)
(-0.00782837 -0.0213599 -2.46395e-18)
(-0.00810755 -0.0210665 -1.98473e-18)
(-0.0083434 -0.0205927 -3.84822e-18)
(-0.00852406 -0.019968 -2.57765e-18)
(-0.00865902 -0.0192287 -7.6025e-19)
(-0.00873379 -0.0183967 3.45696e-18)
(-0.00876161 -0.0174685 3.16698e-18)
(-0.00876301 -0.016472 -7.38368e-18)
(-0.00874601 -0.015461 -1.61088e-17)
(-0.00874182 -0.0145021 -1.6624e-17)
(-0.0087714 -0.0136358 -2.17199e-17)
(-0.00883002 -0.0128627 2.03001e-17)
(-0.00889608 -0.0121632 -4.20744e-19)
(-0.00890127 -0.0115162 -5.64432e-18)
(-0.0087975 -0.0108527 -6.68711e-18)
(-0.0085623 -0.0101378 1.85115e-17)
(-0.00813098 -0.00930936 -4.72386e-17)
(-0.00736923 -0.00829901 -2.15056e-19)
(-0.00612654 -0.00704058 -1.21303e-17)
(-0.00414918 -0.00557932 1.84383e-17)
(-0.0011273 -0.00385221 -8.50806e-18)
(0.00320771 -0.00182961 -2.11487e-17)
(0.00935758 0.000958313 -6.88898e-17)
(0.0179673 0.0049545 -1.34744e-16)
(0.0295531 0.010583 -1.14939e-16)
(0.0430631 0.0173692 -1.16743e-16)
(0.0568079 0.0237695 -1.16356e-16)
(0.0703593 0.0298114 -1.09656e-16)
(0.0838186 0.0358405 -1.08989e-16)
(0.0966493 0.0412726 -1.0515e-16)
(0.10824 0.0453991 -9.05202e-17)
(0.11867 0.0483051 -9.03747e-17)
(0.128218 0.0501725 -7.39543e-17)
(0.137057 0.0510902 -7.23559e-17)
(0.1452 0.0511678 -6.05471e-17)
(0.152669 0.0505779 -5.42352e-17)
(0.159585 0.0493923 -4.48488e-17)
(0.166014 0.0476464 -3.64172e-17)
(0.171974 0.0454054 -2.81378e-17)
(0.177472 0.042695 -2.28229e-17)
(0.182505 0.0396154 -1.53359e-17)