/*--------------------------------*- C++ -*----------------------------------*\
| =========                 |                                                 |
| \\      /  F ield         | OpenFOAM: The Open Source CFD Toolbox           |
|  \\    /   O peration     | Version:  v2006                                 |
|   \\  /    A nd           | Website:  www.openfoam.com                      |
|    \\/     M anipulation  |                                                 |
\*---------------------------------------------------------------------------*/
FoamFile
{
    version     2.0;
    format      ascii;
    class       volVectorField;
    location    "1000";
    object      U;
}
// * * * * * * * * * * * * * * * * * * * * * * * * * * * * * * * * * * * * * //

dimensions      [0 1 -1 0 0 0 0];


internalField   nonuniform List<vector> 
65536
(
(-0.000421138 -0.00155677 4.36522e-19)
(-0.000566834 -0.00464054 -6.41896e-18)
(-0.000838483 -0.00751072 2.62288e-18)
(-0.00121554 -0.010104 -1.51155e-17)
(-0.00168149 -0.0124134 2.49876e-17)
(-0.00221498 -0.0143938 -1.58999e-17)
(-0.00277085 -0.0160281 2.64848e-17)
(-0.0033332 -0.0172204 -1.84286e-17)
(-0.00391617 -0.0181572 3.70415e-17)
(-0.00451238 -0.0189068 3.58725e-18)
(-0.00515638 -0.0194529 1.01978e-17)
(-0.00577404 -0.0198169 -3.0865e-18)
(-0.00633631 -0.0200015 -1.25791e-17)
(-0.00683595 -0.0199575 8.26874e-18)
(-0.00724773 -0.0196681 2.73143e-18)
(-0.00756682 -0.0191482 -2.17252e-17)
(-0.00779912 -0.0184427 -1.29142e-18)
(-0.00795143 -0.0176081 -2.70252e-17)
(-0.00803299 -0.0166902 -4.21724e-18)
(-0.00805771 -0.0157386 -5.99655e-17)
(-0.00804004 -0.0147942 -1.83337e-17)
(-0.00799702 -0.0138993 -9.17506e-18)
(-0.00795124 -0.013059 -1.51914e-17)
(-0.0079202 -0.0123052 -1.1715e-17)
(-0.00791057 -0.0116329 -6.65735e-18)
(-0.00795155 -0.0110715 4.38712e-17)
(-0.00802902 -0.0105993 -4.2082e-17)
(-0.00817084 -0.0102268 1.37388e-16)
(-0.00834939 -0.00991477 2.66565e-17)
(-0.00856148 -0.00964485 6.28602e-17)
(-0.00877778 -0.00937636 5.47664e-17)
(-0.0090316 -0.00914553 3.46573e-17)
(-0.00921298 -0.00890954 -2.31539e-17)
(-0.00939703 -0.00870551 1.28524e-16)
(-0.00906985 -0.00823576 -3.47842e-17)
(-0.00777892 -0.0070458 1.0463e-16)
(-0.00520607 -0.00507197 -1.48067e-17)
(-0.000981787 -0.00186081 -1.46302e-16)
(0.00531967 0.00288795 -7.54372e-17)
(0.0139289 0.00835111 -8.77449e-17)
(0.0238654 0.014032 -3.50169e-17)
(0.0341189 0.0194609 -7.30567e-17)
(0.044323 0.0243215 -6.67152e-17)
(0.0547451 0.0286597 -1.1459e-16)
(0.0654582 0.0325182 -1.04224e-16)
(0.0758132 0.0356897 -1.33953e-16)
(0.0852344 0.037904 -1.31827e-16)
(0.0938992 0.0391587 -1.49961e-16)
(0.102499 0.0399319 -1.43383e-16)
(0.110393 0.0401449 -1.44402e-16)
(0.117769 0.0396349 -1.36254e-16)
(0.124527 0.0386261 -1.32929e-16)
(0.130782 0.0371574 -1.26944e-16)
(0.136681 0.0353675 -1.26853e-16)
(0.142134 0.0331333 -1.17994e-16)
(0.147102 0.0305827 -1.22123e-16)
(0.151805 0.0277558 -1.11202e-16)
(0.156083 0.0246447 -1.12013e-16)
(0.159897 0.0212211 -9.76035e-17)
(0.163465 0.0177151 -9.97279e-17)
(0.166646 0.0139162 -8.75197e-17)
(0.169422 0.0100064 -8.6541e-17)
(0.172018 0.00594657 -7.31933e-17)
(0.174169 0.00178491 -7.24837e-17)
(0.176079 -0.00250552 -6.55239e-17)
(0.177661 -0.0068467 -7.08982e-17)
(0.178921 -0.0112853 -6.8924e-17)
(0.179812 -0.0157535 -7.36115e-17)
(0.180432 -0.020252 -7.07827e-17)
(0.180771 -0.0247983 -7.24218e-17)
(0.180789 -0.0292976 -6.54539e-17)
(0.180537 -0.0338017 -6.88917e-17)
(0.179971 -0.0382728 -6.26735e-17)
(0.179238 -0.0427056 -7.38023e-17)
(0.177914 -0.0470198 -6.65696e-17)
(0.176413 -0.0512683 -7.85428e-17)
(0.174701 -0.0554284 -6.74213e-17)
(0.172726 -0.0594919 -7.42555e-17)
(0.170553 -0.0634592 -6.51427e-17)
(0.168144 -0.0672519 -6.79985e-17)
(0.165496 -0.0709209 -5.98393e-17)
(0.162737 -0.0745093 -6.22084e-17)
(0.159754 -0.0779342 -5.27416e-17)
(0.156382 -0.0810683 -5.61061e-17)
(0.152983 -0.0840765 -4.79366e-17)
(0.149518 -0.0871146 -5.51132e-17)
(0.145673 -0.0896539 -4.52078e-17)
(0.141435 -0.0918481 -5.19625e-17)
(0.13743 -0.094113 -4.17033e-17)
(0.133285 -0.0960893 -5.21976e-17)
(0.12889 -0.0976531 -4.69234e-17)
(0.124592 -0.0992556 -6.40375e-17)
(0.119849 -0.100451 -6.81554e-17)
(0.115144 -0.101308 -6.83473e-17)
(0.110625 -0.102339 -7.5946e-17)
(0.105696 -0.102612 -7.2017e-17)
(0.100808 -0.10274 -7.32313e-17)
(0.096117 -0.102899 -8.63629e-17)
(0.0911084 -0.102481 -8.6942e-17)
(0.0863614 -0.102082 -9.27764e-17)
(0.0816883 -0.101409 -9.72912e-17)
(0.076667 -0.099963 -9.6964e-17)
(0.0718172 -0.0985789 -9.61845e-17)
(0.0673711 -0.0974637 -1.03196e-16)
(0.0629979 -0.0958954 -9.69805e-17)
(0.0584549 -0.0938132 -1.14576e-16)
(0.0540358 -0.0915786 -1.06507e-16)
(0.0498554 -0.089447 -1.3199e-16)
(0.0457316 -0.0870683 -1.19052e-16)
(0.0417103 -0.08406 -1.40961e-16)
(0.0376579 -0.0806169 -1.13118e-16)
(0.0337283 -0.0770785 -1.19408e-16)
(0.0300686 -0.0738233 -9.2984e-17)
(0.0267748 -0.0706012 -1.0003e-16)
(0.023608 -0.066843 -9.40726e-17)
(0.0205521 -0.0630721 -8.48836e-17)
(0.0177271 -0.0594479 -8.53147e-17)
(0.0150937 -0.055535 -8.74115e-17)
(0.0128551 -0.0512105 -7.27951e-17)
(0.0106583 -0.0466956 -7.00684e-17)
(0.00870125 -0.042034 -4.41491e-17)
(0.00697259 -0.0368032 -5.53119e-17)
(0.00539316 -0.0316207 -8.86967e-19)
(0.00407618 -0.0265435 -1.46105e-17)
(0.0030094 -0.0211771 5.8167e-17)
(0.00221259 -0.0156821 5.14911e-17)
(0.00167586 -0.00972109 9.3832e-17)
(0.00132488 -0.00337609 1.63296e-16)
(0.00132346 0.00315638 3.3844e-16)
(0.00165126 0.00947823 2.6973e-16)
(0.00220494 0.0153771 2.48907e-16)
(0.00299263 0.0209906 1.721e-16)
(0.00406042 0.0262952 2.07048e-16)
(0.00540032 0.0314878 1.37812e-16)
(0.0069767 0.0367808 1.62976e-16)
(0.00870794 0.0418326 8.85408e-17)
(0.0106573 0.046596 1.0181e-16)
(0.0129176 0.0513819 6.84776e-17)
(0.0150715 0.0557138 6.48199e-17)
(0.0177444 0.0593466 2.64481e-17)
(0.020617 0.0632463 2.10238e-17)
(0.0234959 0.0668644 -7.54125e-18)
(0.0266216 0.0701152 -1.05627e-17)
(0.0301055 0.0737847 -4.67215e-17)
(0.0337669 0.0774647 -2.98756e-17)
(0.0375153 0.0806279 -6.21782e-17)
(0.0414951 0.0834466 -4.72708e-17)
(0.0457991 0.0866816 -7.63947e-17)
(0.0499268 0.0896613 -5.90152e-17)
(0.0539942 0.0915901 -7.96459e-17)
(0.0584267 0.0938088 -7.10528e-17)
(0.0630189 0.0960339 -9.22335e-17)
(0.067431 0.0974347 -8.57285e-17)
(0.0721289 0.0988433 -9.59283e-17)
(0.0771105 0.100487 -9.64793e-17)
(0.0818955 0.101667 -1.03382e-16)
(0.0864237 0.102067 -1.10213e-16)
(0.0911581 0.10237 -1.23016e-16)
(0.0962914 0.103083 -1.21875e-16)
(0.101039 0.103081 -1.40119e-16)
(0.105493 0.102399 -1.48348e-16)
(0.110444 0.102063 -1.54083e-16)
(0.115223 0.101482 -1.6417e-16)
(0.119678 0.100284 -1.70974e-16)
(0.124306 0.0990723 -1.8135e-16)
(0.128709 0.0976183 -2.05674e-16)
(0.133138 0.095956 -2.02483e-16)
(0.137293 0.094048 -2.18532e-16)
(0.141292 0.0917187 -2.16535e-16)
(0.145336 0.0894235 -2.2965e-16)
(0.149182 0.0867983 -2.25653e-16)
(0.152916 0.0841234 -2.36958e-16)
(0.156359 0.0809788 -2.36879e-16)
(0.159588 0.0778382 -2.42521e-16)
(0.162779 0.0744981 -2.41224e-16)
(0.165619 0.0710035 -2.43005e-16)
(0.168292 0.067294 -2.40977e-16)
(0.17066 0.0634773 -2.46287e-16)
(0.172922 0.0595464 -2.40232e-16)
(0.174851 0.055459 -2.46914e-16)
(0.176597 0.0513053 -2.31208e-16)
(0.178039 0.0470421 -2.34689e-16)
(0.179305 0.0427094 -2.22599e-16)
(0.180212 0.0383228 -2.33018e-16)
(0.180775 0.0338538 -2.28832e-16)
(0.180984 0.0293306 -2.3827e-16)
(0.180859 0.0248114 -2.2851e-16)
(0.180461 0.0202527 -2.31219e-16)
(0.179773 0.015745 -2.2516e-16)
(0.178844 0.0112867 -2.34566e-16)
(0.177566 0.0068452 -2.3234e-16)
(0.176074 0.00246444 -2.42489e-16)
(0.174168 -0.00177327 -2.36535e-16)
(0.172059 -0.00597356 -2.4198e-16)
(0.169562 -0.010012 -2.303e-16)
(0.166682 -0.0139388 -2.30491e-16)
(0.163565 -0.0176846 -2.18315e-16)
(0.160015 -0.0212622 -2.24378e-16)
(0.156104 -0.0246338 -2.20221e-16)
(0.151961 -0.0277715 -2.30322e-16)
(0.147285 -0.0306105 -2.23925e-16)
(0.142255 -0.0331614 -2.23911e-16)
(0.136908 -0.0354069 -2.13308e-16)
(0.131017 -0.0372042 -2.09154e-16)
(0.124692 -0.0386739 -1.91459e-16)
(0.117939 -0.0397167 -1.8343e-16)
(0.110609 -0.0401878 -1.63844e-16)
(0.102697 -0.0399976 -1.84162e-16)
(0.0940558 -0.0391978 -1.75141e-16)
(0.0853395 -0.0379573 -1.95894e-16)
(0.0759405 -0.0357659 -1.83187e-16)
(0.0656381 -0.0326153 -2.07818e-16)
(0.0549415 -0.0287752 -1.56097e-16)
(0.0444984 -0.0244271 -1.96404e-16)
(0.0342518 -0.019537 -1.5705e-16)
(0.0239386 -0.0140688 -1.70271e-16)
(0.0139565 -0.00835261 -1.64934e-16)
(0.00532725 -0.00288739 -1.60443e-16)
(-0.000976611 0.00186442 1.12121e-16)
(-0.00521055 0.00507471 6.40297e-17)
(-0.00778612 0.00705282 -7.49156e-17)
(-0.00908094 0.00824448 9.47288e-17)
(-0.00940631 0.00871711 -8.65545e-17)
(-0.00922041 0.00891459 3.97426e-17)
(-0.00903547 0.00915685 9.19982e-19)
(-0.00880991 0.00941576 -3.17814e-17)
(-0.00860187 0.00969266 -7.98272e-17)
(-0.00840032 0.00997523 -1.86406e-17)
(-0.00822659 0.0102992 -1.42911e-16)
(-0.00808769 0.0106783 4.84875e-17)
(-0.00800467 0.0111456 -4.82706e-17)
(-0.00796359 0.0117088 1.16446e-17)
(-0.00796879 0.0123792 8.96967e-18)
(-0.00799726 0.013132 1.94212e-17)
(-0.00803874 0.0139692 1.18394e-17)
(-0.00807709 0.0148598 1.81199e-17)
(-0.00808923 0.0157997 6.31446e-17)
(-0.00805945 0.0167448 4.39467e-18)
(-0.00797564 0.01766 3.08385e-17)
(-0.00782118 0.0184935 1.80152e-18)
(-0.00758789 0.0192011 5.13265e-18)
(-0.0072676 0.0197221 7.42072e-18)
(-0.00685549 0.0200149 -1.53673e-17)
(-0.00635482 0.0200609 1.82532e-17)
(-0.00579162 0.0198782 -1.26448e-18)
(-0.00517329 0.0195155 -6.59102e-18)
(-0.00452792 0.0189692 -3.56628e-18)
(-0.00392909 0.0182211 -2.77487e-17)
(-0.0033442 0.0172843 6.51946e-18)
(-0.00278095 0.0160953 -2.4809e-17)
(-0.00222398 0.014462 1.47809e-17)
(-0.00168866 0.0124819 -2.77382e-17)
(-0.00122108 0.0101732 1.0789e-17)
(-0.000841906 0.00758263 -4.71362e-18)
(-0.000570681 0.00471605 3.08578e-18)
(-0.000424304 0.00163573 -2.97338e-18)
(-0.00114641 -0.001392 -5.38269e-19)
(-0.00121348 -0.00417974 -4.71512e-18)
(-0.00138594 -0.00683788 4.48926e-18)
(-0.00167297 -0.00934212 -4.88108e-18)
(-0.00205962 -0.0116508 6.35097e-18)
(-0.0025184 -0.0136915 -1.09251e-17)
(-0.00302039 -0.0154144 5.4822e-18)
(-0.00357278 -0.0168093 -5.72145e-18)
(-0.00420919 -0.0179931 2.17639e-18)
(-0.0049105 -0.0191461 -1.19814e-18)
(-0.00558114 -0.0201309 6.02157e-19)
(-0.00621472 -0.0207739 -4.6769e-18)
(-0.00682136 -0.0211669 6.61778e-18)
(-0.00735291 -0.0213031 -1.99578e-18)
(-0.00781467 -0.0212069 -1.39056e-17)
(-0.0081776 -0.0208401 1.40858e-17)
(-0.00845878 -0.0202673 -1.06579e-17)
(-0.0086466 -0.0195063 1.76823e-17)
(-0.00875537 -0.0186068 -1.98304e-17)
(-0.00879826 -0.0176368 2.45065e-17)
(-0.00880552 -0.0166351 -2.6392e-17)
(-0.00878457 -0.0156422 -1.00082e-17)
(-0.00874897 -0.0146961 -1.60392e-17)
(-0.00873377 -0.0138384 1.38137e-17)
(-0.00875124 -0.0130837 -4.11974e-17)
(-0.0088186 -0.0124504 -5.74155e-17)
(-0.00892993 -0.0119015 1.73755e-17)
(-0.00905817 -0.0114357 -4.64731e-17)
(-0.00917545 -0.0109845 2.29641e-17)
(-0.00923279 -0.0105265 -7.5384e-17)
(-0.00919576 -0.00998622 -7.52701e-18)
(-0.00902494 -0.0093689 9.25293e-18)
(-0.00863094 -0.00851689 1.63721e-17)
(-0.007768 -0.00742325 -3.12605e-17)
(-0.00625942 -0.00606933 3.30131e-17)
(-0.00396814 -0.00443292 5.48058e-17)
(-0.00067112 -0.0023055 2.94206e-17)
(0.00377527 -5.60437e-05 -1.33664e-16)
(0.0103909 0.00303608 -4.67496e-17)
(0.019805 0.00841696 -4.21554e-17)
(0.0313946 0.0152378 -6.28791e-17)
(0.0440229 0.0221534 -7.73496e-17)
(0.0565177 0.0281192 -9.33973e-17)
(0.0684562 0.0329147 -1.11758e-16)
(0.0798881 0.0368991 -1.35049e-16)
(0.0907239 0.0401715 -1.44535e-16)
(0.100833 0.0425768 -1.52254e-16)
(0.110226 0.0439618 -1.53917e-16)
(0.118862 0.0444998 -1.49202e-16)
(0.126859 0.0444052 -1.421e-16)
(0.134342 0.0438164 -1.36603e-16)
(0.14127 0.0426274 -1.34271e-16)
(0.147677 0.0408934 -1.22471e-16)
(0.153705 0.0387201 -1.23724e-16)
(0.159318 0.036208 -1.15493e-16)
(0.164405 0.0333136 -1.14971e-16)
(0.169163 0.0300981 -1.02151e-16)
(0.173547 0.0266789 -1.00578e-16)
(0.177397 0.0230448 -8.99035e-17)
(0.180916 0.0190341 -8.96222e-17)
(0.184198 0.0150271 -7.65056e-17)
(0.186887 0.0107262 -7.26752e-17)
(0.189504 0.00628263 -6.0096e-17)
(0.191664 0.00177139 -5.97568e-17)
(0.193502 -0.00292066 -5.61232e-17)
(0.195101 -0.00764245 -6.27287e-17)
(0.196319 -0.0124393 -6.21781e-17)
(0.197054 -0.0172708 -6.84172e-17)
(0.197519 -0.0221296 -6.62984e-17)
(0.197497 -0.0269748 -6.67989e-17)
(0.197172 -0.0318054 -6.42891e-17)
(0.196738 -0.0366533 -6.36749e-17)
(0.195987 -0.0414763 -6.21594e-17)
(0.195251 -0.0462441 -6.83041e-17)
(0.193577 -0.0507979 -7.09225e-17)
(0.191911 -0.0553915 -7.41117e-17)
(0.189897 -0.0598316 -7.06424e-17)
(0.1877 -0.064191 -6.90138e-17)
(0.185222 -0.0684148 -6.07606e-17)
(0.182362 -0.072424 -6.40118e-17)
(0.179202 -0.0763238 -5.92771e-17)
(0.176328 -0.080219 -5.5481e-17)
(0.172943 -0.0837321 -5.27263e-17)
(0.169001 -0.0869077 -5.38135e-17)
(0.165388 -0.0903331 -5.80023e-17)
(0.161928 -0.0935306 -5.25783e-17)
(0.15733 -0.0958195 -5.89488e-17)
(0.152596 -0.0981842 -5.61049e-17)
(0.148373 -0.100757 -5.57431e-17)
(0.143768 -0.102726 -4.79116e-17)
(0.138881 -0.10458 -6.2232e-17)
(0.134143 -0.106159 -6.90246e-17)
(0.128971 -0.107054 -7.21532e-17)
(0.123949 -0.108287 -8.73947e-17)
(0.119098 -0.109095 -7.93887e-17)
(0.113608 -0.109128 -1.05216e-16)
(0.108334 -0.109341 -9.85972e-17)
(0.103301 -0.10934 -1.26638e-16)
(0.0979967 -0.108894 -1.18724e-16)
(0.0929591 -0.108491 -1.66507e-16)
(0.0877503 -0.107374 -1.48603e-16)
(0.0823413 -0.105729 -1.78074e-16)
(0.0772202 -0.104598 -1.56186e-16)
(0.0725129 -0.103383 -1.92182e-16)
(0.0677099 -0.101467 -1.95258e-16)
(0.0628422 -0.0992182 -2.19905e-16)
(0.0581535 -0.0970066 -2.19766e-16)
(0.0536989 -0.0947211 -2.46395e-16)
(0.0494249 -0.0918713 -2.57503e-16)
(0.0450014 -0.0884301 -2.74255e-16)
(0.0405307 -0.0844606 -2.78246e-16)
(0.0362974 -0.0805847 -2.63332e-16)
(0.0325104 -0.0770857 -2.60001e-16)
(0.0290512 -0.0734816 -2.52657e-16)
(0.0255686 -0.0693019 -2.72462e-16)
(0.0222231 -0.0648706 -2.57262e-16)
(0.019173 -0.0601831 -2.70466e-16)
(0.016404 -0.0551933 -2.72596e-16)
(0.0137089 -0.0505308 -2.92246e-16)
(0.0113889 -0.0458545 -2.5961e-16)
(0.00933569 -0.0410315 -2.47346e-16)
(0.00755899 -0.0355645 -2.26124e-16)
(0.0058067 -0.0298852 -2.02186e-16)
(0.0044519 -0.0244044 -1.66971e-16)
(0.00339763 -0.0189489 -1.41613e-16)
(0.00265266 -0.0136334 -7.82878e-17)
(0.00226152 -0.00830781 -7.03279e-17)
(0.00211946 -0.0028384 8.34137e-17)
(0.00211976 0.00271449 6.61125e-16)
(0.0022249 0.008107 5.71971e-16)
(0.00266527 0.0134104 4.94894e-16)
(0.00339176 0.0188133 4.59714e-16)
(0.00442413 0.0241863 4.25507e-16)
(0.0058313 0.0297257 3.83562e-16)
(0.00746178 0.0353519 3.79036e-16)
(0.00928877 0.0406516 3.71746e-16)
(0.0114256 0.04571 3.40635e-16)
(0.013788 0.0506472 3.22713e-16)
(0.0165151 0.0555757 2.84699e-16)
(0.0192627 0.0605999 2.56095e-16)
(0.0223597 0.0652549 2.2296e-16)
(0.0255369 0.0693467 1.9821e-16)
(0.0288687 0.0729693 1.50256e-16)
(0.0325464 0.0767478 1.33238e-16)
(0.0364697 0.0806984 1.03504e-16)
(0.0403711 0.0843967 8.29584e-17)
(0.0444699 0.0876445 6.27778e-17)
(0.0491299 0.0913497 4.35151e-17)
(0.0538616 0.0948136 4.69552e-17)
(0.058232 0.0971568 3.30904e-17)
(0.0629281 0.0992331 3.44628e-17)
(0.0678037 0.101561 1.05326e-17)
(0.0725044 0.103308 3.71373e-18)
(0.0773946 0.104708 -3.22456e-17)
(0.0827498 0.106364 -1.16277e-17)
(0.0880778 0.108001 -3.70428e-17)
(0.0930467 0.108786 -2.00087e-17)
(0.0980083 0.108947 -6.43011e-17)
(0.10356 0.109507 -5.58537e-17)
(0.108881 0.109974 -8.41531e-17)
(0.113518 0.10931 -8.2582e-17)
(0.118717 0.108697 -1.18642e-16)
(0.124061 0.108218 -1.16812e-16)
(0.128842 0.107205 -1.39078e-16)
(0.133751 0.105818 -1.48375e-16)
(0.138626 0.104272 -1.68898e-16)
(0.143609 0.102586 -1.86241e-16)
(0.148295 0.100663 -1.85652e-16)
(0.152463 0.0982189 -1.97632e-16)
(0.156841 0.0956316 -2.05263e-16)
(0.161114 0.0930008 -2.18199e-16)
(0.165366 0.0900972 -2.24714e-16)
(0.169134 0.0871049 -2.37706e-16)
(0.172536 0.083527 -2.47908e-16)
(0.176198 0.0800817 -2.49776e-16)
(0.179487 0.0763727 -2.53694e-16)
(0.182765 0.0726204 -2.50848e-16)
(0.185176 0.0683936 -2.57725e-16)
(0.188008 0.064291 -2.51941e-16)
(0.190091 0.0598966 -2.53416e-16)
(0.192101 0.0554506 -2.45459e-16)
(0.193766 0.0508771 -2.41627e-16)
(0.195116 0.0462043 -2.33669e-16)
(0.1963 0.0415278 -2.40345e-16)
(0.196986 0.0367117 -2.40827e-16)
(0.1976 0.0319073 -2.48055e-16)
(0.197626 0.0270395 -2.42898e-16)
(0.197554 0.0221557 -2.44685e-16)
(0.196928 0.0172775 -2.3732e-16)
(0.196056 0.0124382 -2.46287e-16)
(0.194883 0.00760513 -2.44747e-16)
(0.193461 0.00292378 -2.54998e-16)
(0.191623 -0.00178966 -2.50929e-16)
(0.189599 -0.00629722 -2.55331e-16)
(0.187091 -0.0107397 -2.4623e-16)
(0.184196 -0.0150062 -2.44782e-16)
(0.181067 -0.0191156 -2.3321e-16)
(0.177456 -0.0230134 -2.33328e-16)
(0.173529 -0.0267095 -2.3291e-16)
(0.169312 -0.0301831 -2.38069e-16)
(0.164555 -0.0333671 -2.40064e-16)
(0.159476 -0.0362613 -2.3783e-16)
(0.153964 -0.0388136 -2.29189e-16)
(0.147912 -0.0409657 -2.24299e-16)
(0.141472 -0.0426618 -2.04348e-16)
(0.13457 -0.0438659 -1.94824e-16)
(0.127084 -0.0444982 -1.80091e-16)
(0.119032 -0.0445648 -1.78237e-16)
(0.110353 -0.044029 -1.81452e-16)
(0.100973 -0.0426407 -1.90136e-16)
(0.0908978 -0.0402743 -1.90291e-16)
(0.0801028 -0.0370224 -2.01056e-16)
(0.0686753 -0.033038 -1.87045e-16)
(0.0567107 -0.0282132 -1.90847e-16)
(0.0441637 -0.0222191 -1.74285e-16)
(0.0314688 -0.0152698 -1.53717e-16)
(0.0198252 -0.0084267 -2.09393e-16)
(0.0103937 -0.00303817 -2.15882e-16)
(0.00377331 5.53071e-05 1.74703e-17)
(-0.000674217 0.00231249 -2.29608e-17)
(-0.00397036 0.00443684 -3.60565e-17)
(-0.00626271 0.00607459 -9.92104e-18)
(-0.00777756 0.00743158 3.38297e-17)
(-0.00863817 0.0085291 -7.93536e-18)
(-0.00903963 0.00938859 -5.78022e-18)
(-0.00921631 0.0100239 9.38716e-18)
(-0.009272 0.0105731 7.23721e-17)
(-0.00922655 0.0110542 -1.90694e-17)
(-0.00911996 0.0115109 4.72181e-17)
(-0.00898785 0.0119819 -1.53224e-17)
(-0.00887264 0.0125232 5.69816e-17)
(-0.00880347 0.0131571 4.32275e-17)
(-0.00878232 0.0139093 -1.57401e-17)
(-0.00879201 0.0147657 2.88725e-17)
(-0.00882417 0.0157071 6.31376e-18)
(-0.00883832 0.0166945 2.39781e-17)
(-0.00882809 0.0176899 -2.12338e-17)
(-0.0087797 0.018655 1.87776e-17)
(-0.00866882 0.019553 -1.32876e-17)
(-0.00847945 0.0203143 7.66027e-18)
(-0.00819763 0.0208904 -6.92727e-18)
(-0.00783339 0.0212589 7.65456e-18)
(-0.00737167 0.0213597 2.36806e-18)
(-0.00683928 0.0212268 -4.62299e-18)
(-0.00623195 0.0208366 3.6988e-18)
(-0.0055971 0.0201964 -3.29702e-18)
(-0.00492564 0.019216 -6.87839e-18)
(-0.00422427 0.0180631 -9.45596e-18)
(-0.0035852 0.0168763 3.48444e-18)
(-0.00303051 0.0154828 -4.14221e-18)
(-0.00252731 0.0137614 1.09391e-18)
(-0.00206676 0.0117212 -7.21137e-18)
(-0.00167831 0.00941222 3.92766e-19)
(-0.00138962 0.00690843 -6.18942e-18)
(-0.00121309 0.00424817 1.85192e-18)
(-0.0011444 0.0014702 -1.93571e-18)
(-0.00178756 -0.00128766 -1.24212e-18)
(-0.00186325 -0.00393958 -2.24845e-18)
(-0.0020418 -0.00661812 -7.38606e-19)
(-0.00231819 -0.00919736 -4.33098e-18)
(-0.0026639 -0.0115598 -7.03306e-19)
(-0.0030574 -0.0136466 -3.83335e-18)
(-0.00347601 -0.015458 7.67501e-19)
(-0.0039663 -0.0169749 -3.13912e-18)
(-0.00456971 -0.0182424 -8.27378e-18)
(-0.00520251 -0.0192967 -4.09871e-18)
(-0.00582953 -0.0201912 1.06186e-17)
(-0.0064192 -0.0208736 4.2506e-19)
(-0.00695974 -0.0212872 -2.71733e-18)
(-0.00744783 -0.0214676 -6.99178e-18)
(-0.00786675 -0.0214365 -4.76346e-18)
(-0.00819769 -0.0211394 -1.03505e-17)
(-0.00847136 -0.0206523 -1.07848e-17)
(-0.00867898 -0.0200019 1.99434e-18)
(-0.00883518 -0.0192216 -2.70262e-17)
(-0.00893521 -0.018336 2.19797e-18)
(-0.00896079 -0.0173462 -9.71243e-18)
(-0.00892696 -0.016315 3.94198e-18)
(-0.00889667 -0.0153149 1.73327e-17)
(-0.00888007 -0.0143824 -3.17299e-18)
(-0.00888945 -0.0135319 1.55685e-17)
(-0.00894227 -0.0127935 -1.92547e-17)
(-0.00902548 -0.0121709 -2.66104e-17)
(-0.00912804 -0.0116448 -2.53915e-17)
(-0.00916429 -0.0111034 -1.93169e-17)
(-0.00912931 -0.0105575 1.24135e-17)
(-0.00898004 -0.00994539 -5.879e-18)
(-0.00867676 -0.00928497 3.17617e-17)
(-0.00801287 -0.00850052 -7.68035e-18)
(-0.00677464 -0.00739353 -2.49784e-17)
(-0.00465883 -0.00589463 -1.55908e-17)
(-0.00126849 -0.00368847 2.15748e-17)
(0.00393268 -0.000485626 -2.92164e-18)
(0.0112447 0.00377287 -7.63756e-17)
(0.0200864 0.00818962 -4.02947e-17)
(0.0301742 0.0123783 -7.27021e-17)
(0.0418589 0.0177089 -6.75904e-17)
(0.0551207 0.0244007 -9.12263e-17)
(0.069091 0.0313355 -9.8748e-17)
(0.0822273 0.0369748 -1.27653e-16)
(0.0940682 0.0410854 -1.36518e-16)
(0.104933 0.0441845 -1.42414e-16)
(0.115016 0.0464171 -1.50339e-16)
(0.124449 0.0476977 -1.43863e-16)
(0.133085 0.0481192 -1.35587e-16)
(0.141002 0.0478711 -1.32053e-16)
(0.148414 0.0468861 -1.20661e-16)
(0.155313 0.0454159 -1.16636e-16)
(0.161654 0.043398 -1.07195e-16)
(0.167602 0.0410002 -1.00884e-16)
(0.17312 0.0382512 -8.91286e-17)
(0.178136 0.0351141 -8.27325e-17)
(0.182793 0.0316348 -7.57564e-17)
(0.187096 0.0279359 -6.75666e-17)
(0.190757 0.0238991 -6.01912e-17)
(0.194165 0.0197043 -5.39899e-17)
(0.197205 0.0152898 -4.25041e-17)
(0.199751 0.0107312 -3.29518e-17)
(0.202156 0.00599374 -2.43642e-17)
(0.204155 0.00123079 -2.25005e-17)
(0.205772 -0.0037214 -2.44618e-17)
(0.207158 -0.0087053 -3.17019e-17)
(0.208178 -0.0136987 -3.57799e-17)
(0.208542 -0.0187241 -4.1818e-17)
(0.208782 -0.0237686 -4.39663e-17)
(0.208394 -0.0287867 -4.50433e-17)
(0.20784 -0.0338542 -4.26425e-17)
(0.207222 -0.0389273 -4.21505e-17)
(0.206225 -0.0439695 -4.11888e-17)
(0.205176 -0.0488334 -4.5957e-17)
(0.203125 -0.0534632 -5.69658e-17)
(0.201174 -0.0582148 -6.19568e-17)
(0.198811 -0.062748 -5.80283e-17)
(0.196297 -0.0672067 -5.57225e-17)
(0.193424 -0.0714421 -5.02618e-17)
(0.19019 -0.075396 -5.56347e-17)
(0.186838 -0.0794571 -3.94009e-17)
(0.183726 -0.0834715 -3.89774e-17)
(0.179785 -0.0867704 -2.20521e-17)
(0.175551 -0.0900465 -2.80035e-17)
(0.17182 -0.0936602 -1.90153e-17)
(0.167922 -0.0966767 -1.8452e-17)
(0.163021 -0.0988304 -1.52455e-17)
(0.157893 -0.1012 -2.38776e-17)
(0.153376 -0.103719 -9.30979e-18)
(0.148498 -0.105501 -2.03744e-17)
(0.143505 -0.107118 -1.19429e-17)
(0.138718 -0.108672 -2.45508e-17)
(0.133173 -0.109673 -2.73211e-17)
(0.127793 -0.110595 -6.3817e-17)
(0.122836 -0.111457 -6.77809e-17)
(0.117103 -0.111304 -9.13187e-17)
(0.111466 -0.111265 -1.18969e-16)
(0.106135 -0.111097 -1.40187e-16)
(0.100606 -0.110536 -1.60415e-16)
(0.0953572 -0.109911 -2.01327e-16)
(0.0900987 -0.108585 -2.29776e-16)
(0.0844596 -0.106794 -2.63541e-16)
(0.0790367 -0.105424 -3.11813e-16)
(0.0741404 -0.103974 -3.10561e-16)
(0.0693385 -0.101836 -3.25718e-16)
(0.0643844 -0.0994087 -3.41338e-16)
(0.0595202 -0.0969566 -3.3497e-16)
(0.0549049 -0.0942981 -3.39938e-16)
(0.0504741 -0.0912082 -3.54266e-16)
(0.04611 -0.0877037 -3.45859e-16)
(0.0417341 -0.0837336 -3.97796e-16)
(0.037367 -0.0798547 -4.18571e-16)
(0.0334338 -0.0762178 -4.71591e-16)
(0.0299326 -0.0723851 -4.5931e-16)
(0.0265641 -0.0682586 -4.49076e-16)
(0.0233728 -0.0640889 -4.5613e-16)
(0.0205031 -0.0598389 -4.56936e-16)
(0.0177655 -0.055484 -4.48155e-16)
(0.0152348 -0.0508778 -4.63382e-16)
(0.0129089 -0.0459878 -4.99375e-16)
(0.0108668 -0.0409319 -5.04834e-16)
(0.00919358 -0.0352056 -5.25831e-16)
(0.00736974 -0.0294885 -5.20123e-16)
(0.00602958 -0.024066 -4.99482e-16)
(0.00493682 -0.0186603 -4.73473e-16)
(0.00416184 -0.0133644 -3.80967e-16)
(0.00377378 -0.00801751 -2.94097e-16)
(0.00359219 -0.00266531 7.13527e-18)
(0.00358575 0.00264806 8.6121e-16)
(0.00369781 0.00790416 7.48819e-16)
(0.00418623 0.013134 6.65666e-16)
(0.00494224 0.0185006 5.7895e-16)
(0.00596653 0.0238676 5.20487e-16)
(0.00744949 0.0293228 4.71251e-16)
(0.00905798 0.0350523 4.04502e-16)
(0.0109006 0.0406095 3.73201e-16)
(0.0130182 0.045914 3.27355e-16)
(0.015366 0.0510439 2.53608e-16)
(0.0178232 0.0556979 2.78475e-16)
(0.0205095 0.0599605 2.82159e-16)
(0.0233715 0.064324 2.34892e-16)
(0.0264215 0.0683748 2.39159e-16)
(0.0297608 0.0720243 1.97467e-16)
(0.0335038 0.0757799 1.42201e-16)
(0.037427 0.0798045 7.61107e-17)
(0.0413446 0.0837201 7.03e-17)
(0.045725 0.08706 8.39764e-18)
(0.050539 0.0907271 1.813e-17)
(0.0552052 0.0945392 3.49942e-17)
(0.0597282 0.09745 6.86852e-17)
(0.064619 0.0998359 6.68954e-17)
(0.069581 0.10232 7.3085e-17)
(0.0744153 0.104229 6.95026e-17)
(0.0796294 0.105754 6.42881e-17)
(0.0852646 0.107604 4.39073e-17)
(0.0905998 0.109329 6.94294e-17)
(0.0955112 0.110246 7.46463e-17)
(0.100695 0.11046 6.24032e-17)
(0.10649 0.111212 4.59525e-17)
(0.111956 0.111924 4.82153e-17)
(0.116791 0.111368 3.04315e-17)
(0.122212 0.110695 7.89466e-19)
(0.127762 0.1105 -1.79742e-17)
(0.132801 0.109531 -4.86225e-17)
(0.137904 0.108201 -6.15006e-17)
(0.143038 0.10675 -9.44359e-17)
(0.148229 0.105239 -9.33088e-17)
(0.15333 0.103655 -1.17345e-16)
(0.157721 0.101178 -1.27821e-16)
(0.16234 0.0986281 -1.52417e-16)
(0.166775 0.0958098 -1.62432e-16)
(0.171551 0.0932619 -1.85019e-16)
(0.175724 0.0901454 -2.00252e-16)
(0.179421 0.0866699 -2.18199e-16)
(0.183331 0.0830514 -2.14962e-16)
(0.18702 0.0793898 -2.23075e-16)
(0.190705 0.0756797 -2.15568e-16)
(0.193483 0.0714688 -2.24225e-16)
(0.196567 0.0672186 -2.20879e-16)
(0.199069 0.0628391 -2.23279e-16)
(0.201304 0.0582543 -2.18413e-16)
(0.203374 0.0535958 -2.16227e-16)
(0.204948 0.0487462 -2.16827e-16)
(0.206508 0.0439451 -2.2009e-16)
(0.207351 0.0389338 -2.22671e-16)
(0.208371 0.0339577 -2.34591e-16)
(0.208554 0.0288998 -2.34578e-16)
(0.208865 0.0238429 -2.37424e-16)
(0.208392 0.0187724 -2.32245e-16)
(0.20781 0.0137032 -2.3691e-16)
(0.20679 0.00862913 -2.38216e-16)
(0.20569 0.00363492 -2.46917e-16)
(0.203965 -0.00124925 -2.45555e-16)
(0.202296 -0.00608607 -2.45085e-16)
(0.199908 -0.0107206 -2.40495e-16)
(0.197245 -0.0153083 -2.35808e-16)
(0.194295 -0.019697 -2.29739e-16)
(0.190804 -0.0238913 -2.24589e-16)
(0.187023 -0.0279319 -2.23754e-16)
(0.182923 -0.0317042 -2.26756e-16)
(0.178261 -0.03513 -2.33681e-16)
(0.173278 -0.0383043 -2.37786e-16)
(0.167875 -0.0411104 -2.2332e-16)
(0.161917 -0.0434399 -2.18248e-16)
(0.155544 -0.0454678 -2.01073e-16)
(0.148657 -0.0469719 -1.96549e-16)
(0.141224 -0.0479208 -1.74871e-16)
(0.133269 -0.048172 -1.74683e-16)
(0.124609 -0.0477559 -1.74932e-16)
(0.115185 -0.0465326 -1.8458e-16)
(0.105126 -0.0443214 -1.91845e-16)
(0.0942951 -0.0412103 -2.03843e-16)
(0.0824654 -0.0370984 -1.90586e-16)
(0.0693081 -0.0314312 -1.90986e-16)
(0.0552817 -0.0244585 -1.74253e-16)
(0.0419444 -0.0177201 -1.58267e-16)
(0.0302078 -0.0123632 -1.63137e-16)
(0.0200988 -0.00818603 -2.39287e-16)
(0.0112615 -0.00377376 -9.61609e-17)
(0.0039434 0.000476489 -4.24318e-17)
(-0.00126374 0.00368529 -1.95567e-17)
(-0.00466258 0.00589873 3.09109e-17)
(-0.00678084 0.00740594 1.99326e-17)
(-0.00802038 0.00851375 1.25035e-17)
(-0.00868744 0.00931088 -3.3361e-17)
(-0.00900083 0.00998732 6.95758e-18)
(-0.00916392 0.0106099 -1.1607e-17)
(-0.00921077 0.0111702 1.56935e-17)
(-0.00918157 0.0117142 3.37159e-17)
(-0.00907955 0.0122466 4.24676e-17)
(-0.00899294 0.0128616 6.82924e-18)
(-0.00894059 0.0136001 -1.10747e-17)
(-0.00892636 0.0144474 -6.07544e-18)
(-0.00893909 0.0153784 -5.00778e-18)
(-0.0089667 0.0163749 2.77569e-18)
(-0.0089944 0.0174024 4.38572e-18)
(-0.00896189 0.0183852 1.01158e-20)
(-0.00885643 0.0192644 2.31784e-17)
(-0.00869989 0.0200449 -9.00607e-19)
(-0.00849072 0.0206965 8.24413e-18)
(-0.00821659 0.0211877 8.05539e-18)
(-0.00788412 0.0214872 -5.46922e-20)
(-0.00746503 0.0215225 3.01149e-18)
(-0.00697594 0.0213454 1.22947e-21)
(-0.00643481 0.0209344 -1.11002e-17)
(-0.00584469 0.0202558 -1.02638e-17)
(-0.0052172 0.019362 -3.91075e-18)
(-0.00458369 0.0183085 5.26966e-18)
(-0.00397837 0.0170433 7.6294e-19)
(-0.00348526 0.0155277 -3.27452e-18)
(-0.00306543 0.0137175 -2.23781e-18)
(-0.00267046 0.0116313 -7.4643e-19)
(-0.00232352 0.00927029 5.05954e-19)
(-0.00204577 0.00669223 -8.43388e-19)
(-0.00186545 0.00401229 -3.71544e-19)
(-0.00178845 0.00135439 -1.19486e-18)
(-0.0024225 -0.00125228 -8.72276e-19)
(-0.0024886 -0.00381175 -1.20449e-18)
(-0.00263006 -0.00632388 2.84402e-19)
(-0.002824 -0.00870513 -4.0897e-18)
(-0.00307264 -0.0109238 -3.53516e-18)
(-0.00338611 -0.0129555 -4.14623e-18)
(-0.00376145 -0.0148079 -4.86316e-18)
(-0.00422937 -0.0164637 -4.90269e-18)
(-0.00480586 -0.0178686 3.23987e-18)
(-0.00542424 -0.0190259 -6.70708e-18)
(-0.00599176 -0.0199505 -6.27276e-19)
(-0.00651476 -0.0206232 -2.83935e-18)
(-0.00700905 -0.0210577 -2.31021e-18)
(-0.00744139 -0.0212375 8.66225e-19)
(-0.00780823 -0.0212236 -1.93068e-18)
(-0.00809233 -0.0209547 -1.65513e-18)
(-0.00833721 -0.0205089 -3.41731e-18)
(-0.00852673 -0.0199101 -2.32792e-18)
(-0.00867267 -0.0191962 -3.60415e-19)
(-0.00875401 -0.018391 3.70206e-18)
(-0.00878693 -0.0174863 3.48667e-18)
(-0.00879048 -0.0165081 -7.25474e-18)
(-0.00877607 -0.0155081 -1.57306e-17)
(-0.00876666 -0.0145528 -1.65146e-17)
(-0.00878783 -0.0136823 -2.11937e-17)
(-0.00883834 -0.012897 2.03706e-17)
(-0.00890313 -0.0121831 -7.94502e-20)
(-0.0089114 -0.0115431 -5.63939e-18)
(-0.00882279 -0.0108766 -6.355e-18)
(-0.00860556 -0.0101794 1.86552e-17)
(-0.00821109 -0.00936536 -4.71212e-17)
(-0.00749953 -0.00839746 -4.85576e-19)
(-0.00633095 -0.00717566 -1.19626e-17)
(-0.00446891 -0.00575179 1.97554e-17)
(-0.00160214 -0.00407092 -3.69739e-18)
(0.00252247 -0.00214345 -6.24784e-18)
(0.00838478 0.000481339 -3.03093e-17)
(0.016649 0.00425205 -9.0737e-17)
(0.0279857 0.00969255 -6.30985e-17)
(0.0414188 0.0164258 -6.11586e-17)
(0.0551647 0.0228097 -7.20972e-17)
(0.0687323 0.0288008 -9.11841e-17)
(0.0822817 0.0348487 -1.16774e-16)
(0.0953108 0.0404024 -1.40328e-16)
(0.107103 0.0446732 -1.37485e-16)
(0.117713 0.0477057 -1.48885e-16)
(0.127444 0.0497064 -1.35629e-16)
(0.136469 0.0507384 -1.29317e-16)
(0.144779 0.0509032 -1.13178e-16)
(0.152406 0.0503691 -1.01388e-16)
(0.159507 0.0492727 -8.62862e-17)
(0.166105 0.0476103 -7.02214e-17)
(0.172203 0.0453954 -5.85386e-17)
(0.177881 0.0426739 -5.05503e-17)
(0.183109 0.039683 -3.94753e-17)
(0.187764 0.0362979 -2.91057e-17)