/*--------------------------------*- C++ -*----------------------------------*\
| =========                 |                                                 |
| \\      /  F ield         | OpenFOAM: The Open Source CFD Toolbox           |
|  \\    /   O peration     | Version:  v2006                                 |
|   \\  /    A nd           | Website:  www.openfoam.com                      |
|    \\/     M anipulation  |                                                 |
\*---------------------------------------------------------------------------*/
FoamFile
{
    version     2.0;
    format      ascii;
    class       volVectorField;
    location    "1000";
    object      UMean;
}
// * * * * * * * * * * * * * * * * * * * * * * * * * * * * * * * * * * * * * //

dimensions      [0 1 -1 0 0 0 0];


internalField   nonuniform List<vector> 
65536
(
(-0.000422325 -0.0015227 -4.59179e-19)
(-0.000571259 -0.00464266 -7.39674e-18)
(-0.000846134 -0.00755797 1.47245e-18)
(-0.00122986 -0.0102045 -1.55937e-17)
(-0.00170371 -0.0125628 2.36997e-17)
(-0.00224588 -0.0145875 -1.65728e-17)
(-0.00281234 -0.0162559 2.52651e-17)
(-0.00338559 -0.0174866 -1.89267e-17)
(-0.00397827 -0.0184455 3.57645e-17)
(-0.00458728 -0.0192002 3.00295e-18)
(-0.005233 -0.0197426 9.2768e-18)
(-0.00584976 -0.0200934 -3.48948e-18)
(-0.00641024 -0.0202499 -1.32077e-17)
(-0.00690509 -0.020174 7.80119e-18)
(-0.00730844 -0.0198448 2.12839e-18)
(-0.00761841 -0.0192893 -2.19415e-17)
(-0.00784034 -0.0185479 -1.83334e-18)
(-0.007982 -0.017682 -2.7172e-17)
(-0.00805335 -0.0167375 -4.77677e-18)
(-0.00807056 -0.0157665 -5.99544e-17)
(-0.00804691 -0.0148096 -1.91054e-17)
(-0.00800191 -0.0139073 -8.94621e-18)
(-0.00795623 -0.0130661 -1.5998e-17)
(-0.00792676 -0.0123138 -1.13791e-17)
(-0.00792355 -0.0116488 -7.73329e-18)
(-0.007971 -0.0110968 4.48667e-17)
(-0.00806324 -0.0106407 -4.37288e-17)
(-0.00821229 -0.0102759 1.38601e-16)
(-0.00840022 -0.00996967 2.55168e-17)
(-0.00861214 -0.0096993 6.40735e-17)
(-0.0088379 -0.0094365 5.28854e-17)
(-0.00907971 -0.00919324 3.63108e-17)
(-0.00927172 -0.00896692 -2.46979e-17)
(-0.00942125 -0.008756 1.29831e-16)
(-0.00897529 -0.00819372 -3.70224e-17)
(-0.00752818 -0.00688694 1.09114e-16)
(-0.00474395 -0.00473716 -2.91756e-17)
(-0.0002509 -0.00131692 -1.68932e-16)
(0.00634499 0.00359183 -1.16434e-16)
(0.0151699 0.00915805 -1.35599e-16)
(0.0252085 0.0148856 -9.59254e-17)
(0.0355173 0.020313 -1.22004e-16)
(0.0457895 0.0251704 -1.07606e-16)
(0.0562834 0.0295016 -1.34984e-16)
(0.0669939 0.0333179 -1.07312e-16)
(0.0772698 0.0364172 -1.30072e-16)
(0.0866288 0.0385323 -1.20019e-16)
(0.0953323 0.0397495 -1.3535e-16)
(0.103894 0.0405004 -1.30719e-16)
(0.111719 0.0406332 -1.3904e-16)
(0.119017 0.0400757 -1.36758e-16)
(0.125749 0.0390215 -1.40322e-16)
(0.132001 0.0375222 -1.41579e-16)
(0.137828 0.0356569 -1.492e-16)
(0.14323 0.0333995 -1.47595e-16)
(0.148222 0.0308241 -1.57553e-16)
(0.152849 0.0279489 -1.54567e-16)
(0.157085 0.024813 -1.63874e-16)
(0.160967 0.0214107 -1.59411e-16)
(0.164504 0.0177907 -1.69982e-16)
(0.167665 0.0140189 -1.66969e-16)
(0.170501 0.0100867 -1.76178e-16)
(0.173008 0.00599466 -1.74178e-16)
(0.175167 0.00180681 -1.83397e-16)
(0.177021 -0.00249917 -1.82302e-16)
(0.178541 -0.0068699 -1.90973e-16)
(0.179761 -0.0113287 -1.90795e-16)
(0.180653 -0.01582 -1.98504e-16)
(0.181283 -0.0203443 -1.99446e-16)
(0.181642 -0.0249125 -2.06976e-16)
(0.181695 -0.0294396 -2.0618e-16)
(0.181427 -0.0339603 -2.16334e-16)
(0.180807 -0.0384301 -2.15764e-16)
(0.179851 -0.042826 -2.29824e-16)
(0.178598 -0.0471808 -2.24226e-16)
(0.17711 -0.0514469 -2.38582e-16)
(0.175369 -0.0556226 -2.33186e-16)
(0.173399 -0.0597076 -2.47776e-16)
(0.171201 -0.0636812 -2.47123e-16)
(0.168789 -0.0675076 -2.56473e-16)
(0.166164 -0.0712281 -2.56344e-16)
(0.163336 -0.0747907 -2.67073e-16)
(0.160259 -0.0781854 -2.65883e-16)
(0.156974 -0.0813711 -2.75016e-16)
(0.153495 -0.0843858 -2.72282e-16)
(0.149823 -0.0872186 -2.83871e-16)
(0.146004 -0.08981 -2.79064e-16)
(0.14202 -0.092223 -2.91656e-16)
(0.137892 -0.0944037 -2.89471e-16)
(0.133651 -0.0963442 -3.05057e-16)
(0.129276 -0.098084 -3.01685e-16)
(0.12481 -0.099565 -3.19175e-16)
(0.120236 -0.100818 -3.24272e-16)
(0.115615 -0.101808 -3.25052e-16)
(0.110891 -0.102588 -3.34568e-16)
(0.106139 -0.103078 -3.32545e-16)
(0.101353 -0.103332 -3.36885e-16)
(0.0965289 -0.103341 -3.50178e-16)
(0.0916912 -0.103085 -3.5276e-16)
(0.0868695 -0.102567 -3.56736e-16)
(0.0820451 -0.101806 -3.65894e-16)
(0.0772606 -0.100785 -3.68742e-16)
(0.0725025 -0.0995172 -3.74084e-16)
(0.0678171 -0.0979822 -3.81851e-16)
(0.0631948 -0.0962104 -3.75519e-16)
(0.0586533 -0.0941913 -3.89954e-16)
(0.0542412 -0.0919382 -3.83154e-16)
(0.0499512 -0.089537 -4.05882e-16)
(0.0457313 -0.0869249 -3.91615e-16)
(0.0416336 -0.0840903 -4.2136e-16)
(0.0376884 -0.0810378 -4.05444e-16)
(0.033915 -0.0777839 -4.32139e-16)
(0.0303038 -0.0743511 -4.20478e-16)
(0.0268821 -0.0707419 -4.38818e-16)
(0.0236463 -0.0669839 -4.36805e-16)
(0.0205955 -0.0631231 -4.40588e-16)
(0.0176515 -0.0592363 -4.45559e-16)
(0.015063 -0.0552225 -4.56582e-16)
(0.0128562 -0.0510142 -4.56753e-16)
(0.0106994 -0.046537 -4.74234e-16)
(0.00875373 -0.0418527 -4.60316e-16)
(0.00699592 -0.0370176 -4.83216e-16)
(0.0054486 -0.0320322 -4.62978e-16)
(0.00413001 -0.0268821 -4.93378e-16)
(0.00306552 -0.0214725 -4.64494e-16)
(0.00224653 -0.0157461 -4.86153e-16)
(0.00166421 -0.00966413 -4.87868e-16)
(0.00130629 -0.00325226 -4.75012e-16)
(0.00131077 0.00331005 9.05774e-16)
(0.00166726 0.00971741 8.22917e-16)
(0.00225092 0.0157962 7.715e-16)
(0.00306885 0.0215215 6.86529e-16)
(0.00413555 0.0269294 6.76042e-16)
(0.00545559 0.0320802 5.91091e-16)
(0.00700408 0.0370658 5.81e-16)
(0.00876332 0.0419062 5.00123e-16)
(0.0107088 0.0465951 4.95492e-16)
(0.0128661 0.0510728 4.37676e-16)
(0.0150711 0.0552772 4.11784e-16)
(0.0176667 0.0592853 3.61844e-16)
(0.0206122 0.0631696 3.33633e-16)
(0.023667 0.0670289 2.88623e-16)
(0.0269029 0.0707856 2.6867e-16)
(0.0303259 0.074394 2.08202e-16)
(0.0339396 0.0778275 1.97075e-16)
(0.0377176 0.0810805 1.41092e-16)
(0.0416659 0.0841355 1.32215e-16)
(0.0457654 0.0869735 7.66911e-17)
(0.0499822 0.0895763 6.97106e-17)
(0.0542811 0.091991 2.47663e-17)
(0.0586735 0.0942232 1.45707e-17)
(0.0632273 0.0962601 -2.04448e-17)
(0.0678528 0.0980359 -2.67459e-17)
(0.072525 0.0995496 -5.22633e-17)
(0.0772981 0.100837 -6.65366e-17)
(0.082075 0.101848 -8.48395e-17)
(0.0868988 0.102605 -9.96788e-17)
(0.0917181 0.10312 -1.17892e-16)
(0.0965561 0.103373 -1.21186e-16)
(0.101381 0.103363 -1.42854e-16)
(0.106169 0.10311 -1.5053e-16)
(0.110922 0.10262 -1.55687e-16)
(0.115646 0.101838 -1.66368e-16)
(0.120267 0.100847 -1.72122e-16)
(0.124841 0.0995929 -1.77995e-16)
(0.129306 0.0981098 -1.98056e-16)
(0.133683 0.0963701 -1.94206e-16)
(0.137922 0.0944285 -2.10824e-16)
(0.142051 0.0922474 -2.06945e-16)
(0.146035 0.089832 -2.19287e-16)
(0.149854 0.0872377 -2.1261e-16)
(0.153525 0.0844061 -2.21069e-16)
(0.157001 0.0813924 -2.1694e-16)
(0.160288 0.0782049 -2.21281e-16)
(0.163362 0.0748128 -2.18931e-16)
(0.166189 0.0712544 -2.2291e-16)
(0.168815 0.0675293 -2.19987e-16)
(0.171228 0.0636922 -2.25889e-16)
(0.173426 0.0597173 -2.19672e-16)
(0.175393 0.0556301 -2.30284e-16)
(0.177132 0.0514531 -2.19102e-16)
(0.178625 0.0471881 -2.28876e-16)
(0.17987 0.0428306 -2.17541e-16)
(0.18083 0.0384352 -2.26261e-16)
(0.181446 0.0339637 -2.17883e-16)
(0.181714 0.0294428 -2.25164e-16)
(0.18166 0.024914 -2.17148e-16)
(0.1813 0.020346 -2.20343e-16)
(0.18067 0.0158211 -2.1389e-16)
(0.179775 0.0113295 -2.17236e-16)
(0.178557 0.00686937 -2.09694e-16)
(0.177033 0.00250032 -2.13987e-16)
(0.17518 -0.00180943 -2.05456e-16)
(0.173019 -0.00599293 -2.10439e-16)
(0.170512 -0.0100872 -2.00943e-16)
(0.167674 -0.0140183 -2.06231e-16)
(0.164513 -0.0177923 -1.95567e-16)
(0.160975 -0.0214088 -2.02667e-16)
(0.157092 -0.024814 -1.9026e-16)
(0.152855 -0.0279498 -1.98034e-16)
(0.148227 -0.030825 -1.84771e-16)
(0.143234 -0.0334002 -1.92186e-16)
(0.13783 -0.0356574 -1.82606e-16)
(0.132002 -0.0375225 -1.88831e-16)
(0.125749 -0.0390217 -1.80934e-16)
(0.119016 -0.0400744 -1.84676e-16)
(0.111715 -0.0406318 -1.71631e-16)
(0.103887 -0.0404972 -1.83521e-16)
(0.0953248 -0.0397467 -1.67861e-16)
(0.0866228 -0.0385296 -1.81844e-16)
(0.0772602 -0.0364122 -1.63928e-16)
(0.0669829 -0.0333127 -1.8619e-16)
(0.0562749 -0.0294972 -1.50573e-16)
(0.0457829 -0.0251655 -1.78399e-16)
(0.0355077 -0.0203069 -1.53668e-16)
(0.0252027 -0.0148817 -1.82321e-16)
(0.0151732 -0.00915839 -1.23669e-16)
(0.0063605 -0.00360098 -1.59083e-16)
(-0.00023299 0.00130002 7.03812e-17)
(-0.00472847 0.00472205 7.6389e-17)
(-0.00751557 0.00687708 -8.34096e-17)
(-0.00896744 0.00818632 9.9742e-17)
(-0.00941357 0.00875063 -9.00202e-17)
(-0.00927206 0.0089687 4.25556e-17)
(-0.00908293 0.00920008 -1.19723e-18)
(-0.00884375 0.00944344 -3.0063e-17)
(-0.00861905 0.0097074 -8.14651e-17)
(-0.0084084 0.00997938 -1.77962e-17)
(-0.00822116 0.0102872 -1.44756e-16)
(-0.00807311 0.010654 4.88406e-17)
(-0.0079814 0.0111117 -4.91617e-17)
(-0.00793493 0.011666 1.12112e-17)
(-0.00793924 0.0123338 8.46206e-18)
(-0.00797019 0.0130897 1.86899e-17)
(-0.00801735 0.0139343 1.12048e-17)
(-0.00806385 0.014841 1.71659e-17)
(-0.00808876 0.0158031 6.23532e-17)
(-0.00807357 0.0167805 3.41044e-18)
(-0.00800407 0.0177319 2.97924e-17)
(-0.00786419 0.0186058 7.83283e-19)
(-0.00764393 0.0193553 4.02377e-18)
(-0.00733507 0.0199195 6.3296e-18)
(-0.00693288 0.020258 -1.64213e-17)
(-0.00643887 0.0203432 1.7043e-17)
(-0.00587839 0.0201943 -2.52297e-18)
(-0.00526051 0.0198504 -7.57301e-18)
(-0.00461337 0.0193151 -4.79195e-18)
(-0.00400311 0.0185667 -2.85252e-17)
(-0.00340844 0.0176157 5.19601e-18)
(-0.00283293 0.0163911 -2.56739e-17)
(-0.00226429 0.0147313 1.34003e-17)
(-0.00171937 0.0127149 -2.86071e-17)
(-0.00124238 0.0103644 9.21217e-18)
(-0.000855992 0.00772329 -5.75371e-18)
(-0.000577037 0.00481138 1.90798e-18)
(-0.000423577 0.00169279 -4.28773e-18)
(-0.00115877 -0.0013727 -1.70962e-18)
(-0.00122964 -0.00420192 -5.88615e-18)
(-0.00140958 -0.00691109 3.20793e-18)
(-0.00170313 -0.0094677 -5.85205e-18)
(-0.00209548 -0.0118205 5.16507e-18)
(-0.00256161 -0.0139002 -1.17571e-17)
(-0.00307274 -0.0156568 4.40489e-18)
(-0.00363774 -0.0170894 -6.47156e-18)
(-0.00428365 -0.0183135 1.23011e-18)
(-0.00498367 -0.0194723 -1.86051e-18)
(-0.00565655 -0.0204359 -2.5377e-19)
(-0.00629359 -0.0210682 -5.19909e-18)
(-0.00689665 -0.0214396 5.7962e-18)
(-0.00742466 -0.0215497 -2.34372e-18)
(-0.00787695 -0.0214133 -1.45485e-17)
(-0.0082326 -0.0210139 1.37699e-17)
(-0.00850303 -0.0204039 -1.12422e-17)
(-0.00867976 -0.0196086 1.75101e-17)
(-0.00877705 -0.0186778 -2.03891e-17)
(-0.00881214 -0.0176808 2.45337e-17)
(-0.00881232 -0.0166581 -2.70163e-17)
(-0.00878806 -0.0156522 -9.95093e-18)
(-0.00875148 -0.0147008 -1.68214e-17)
(-0.0087399 -0.0138426 1.40511e-17)
(-0.00876394 -0.0130938 -4.19946e-17)
(-0.0088398 -0.0124698 -5.73609e-17)
(-0.00896116 -0.0119374 1.6343e-17)
(-0.00909962 -0.0114769 -4.60143e-17)
(-0.00921406 -0.0110313 2.17702e-17)
(-0.00926104 -0.0105553 -7.43666e-17)
(-0.0092093 -0.0100093 -8.8626e-18)
(-0.0090133 -0.00935776 1.06391e-17)
(-0.00857449 -0.00846863 1.46697e-17)
(-0.00763684 -0.00733708 -2.9214e-17)
(-0.00602745 -0.00593584 3.22264e-17)
(-0.00360491 -0.00422475 5.55892e-17)
(-0.000133636 -0.00202934 3.5767e-18)
(0.00458399 0.000366038 -1.67346e-16)
(0.0115328 0.00372805 -9.21521e-17)
(0.0212417 0.00934285 -9.7222e-17)
(0.0330224 0.0162771 -1.23012e-16)
(0.0457171 0.0231852 -1.21929e-16)
(0.0582086 0.0290879 -1.24228e-16)
(0.0701253 0.0338402 -1.18611e-16)
(0.081525 0.0377745 -1.26766e-16)
(0.0923059 0.0409808 -1.28865e-16)
(0.10236 0.0432864 -1.28921e-16)
(0.111688 0.0446145 -1.30844e-16)
(0.120296 0.0450932 -1.30622e-16)
(0.128261 0.0449703 -1.31357e-16)
(0.135679 0.0442943 -1.31834e-16)
(0.142562 0.0430398 -1.37503e-16)
(0.148958 0.0412836 -1.33458e-16)
(0.154926 0.0390753 -1.42317e-16)
(0.160463 0.0364904 -1.40768e-16)
(0.165565 0.0335788 -1.47018e-16)
(0.170269 0.0303454 -1.43269e-16)
(0.174577 0.0268417 -1.5068e-16)
(0.178513 0.0231541 -1.49389e-16)
(0.182065 0.0192134 -1.57093e-16)
(0.18526 0.0150923 -1.54347e-16)
(0.1881 0.0107897 -1.61929e-16)
(0.190593 0.00632698 -1.60658e-16)
(0.192729 0.00177481 -1.68217e-16)
(0.194516 -0.00291456 -1.6768e-16)
(0.19598 -0.00764965 -1.74952e-16)
(0.197092 -0.012487 -1.74641e-16)
(0.197875 -0.0173433 -1.82459e-16)
(0.19833 -0.022229 -1.83062e-16)
(0.198438 -0.0271326 -1.88995e-16)
(0.198228 -0.0319908 -1.91996e-16)
(0.197703 -0.0368285 -1.97666e-16)
(0.196844 -0.0416188 -2.00174e-16)
(0.195739 -0.0463464 -2.06723e-16)
(0.194285 -0.0510215 -2.08802e-16)
(0.192606 -0.0556054 -2.13888e-16)
(0.19061 -0.0600708 -2.16752e-16)
(0.188379 -0.0644393 -2.23567e-16)
(0.185868 -0.0686665 -2.22977e-16)
(0.183107 -0.0727428 -2.31949e-16)
(0.180112 -0.0766769 -2.36395e-16)
(0.17688 -0.0804057 -2.42287e-16)
(0.173435 -0.0839678 -2.48189e-16)
(0.169778 -0.0873322 -2.5435e-16)
(0.165924 -0.0904966 -2.64108e-16)
(0.16189 -0.0934706 -2.6387e-16)
(0.157674 -0.0961819 -2.7601e-16)
(0.153311 -0.098715 -2.79547e-16)
(0.148785 -0.100991 -2.88876e-16)
(0.144134 -0.10301 -2.85624e-16)
(0.139366 -0.104818 -3.00324e-16)
(0.134482 -0.106335 -3.06918e-16)
(0.129516 -0.10762 -3.0901e-16)
(0.124475 -0.108601 -3.20987e-16)
(0.119365 -0.109379 -3.1346e-16)
(0.114207 -0.109826 -3.38346e-16)
(0.109027 -0.110027 -3.29771e-16)
(0.103818 -0.109964 -3.51627e-16)
(0.0985993 -0.109619 -3.39768e-16)
(0.093402 -0.108984 -3.76541e-16)
(0.0882208 -0.108103 -3.5953e-16)
(0.0830821 -0.106931 -3.84131e-16)
(0.077986 -0.105512 -3.6406e-16)
(0.0729639 -0.103801 -3.95668e-16)
(0.0680113 -0.101853 -3.95034e-16)
(0.0631378 -0.09966 -4.11111e-16)
(0.0583713 -0.0972276 -4.12783e-16)
(0.0537226 -0.0945815 -4.28888e-16)
(0.0492844 -0.0916657 -4.29926e-16)
(0.0450151 -0.0885652 -4.45164e-16)
(0.040852 -0.085246 -4.52748e-16)
(0.0368221 -0.0816667 -4.5657e-16)
(0.0329448 -0.0778546 -4.68594e-16)
(0.029236 -0.0738021 -4.65831e-16)
(0.0256798 -0.0694972 -4.82214e-16)
(0.022296 -0.0648815 -4.85431e-16)
(0.0191997 -0.059878 -4.95668e-16)
(0.0162881 -0.054937 -4.94324e-16)
(0.0136166 -0.0503217 -5.11211e-16)
(0.0113312 -0.0455843 -5.06971e-16)
(0.00924607 -0.0405846 -5.12262e-16)
(0.00738919 -0.0353835 -5.10674e-16)
(0.00579599 -0.0300634 -5.21345e-16)
(0.00447354 -0.0246779 -5.14094e-16)
(0.003455 -0.0192543 -5.25566e-16)
(0.00272583 -0.0138201 -5.09881e-16)
(0.00230449 -0.00836071 -5.3951e-16)
(0.00215271 -0.00279444 -5.16678e-16)
(0.00215072 0.00284364 9.18391e-16)
(0.00230218 0.00840014 7.80507e-16)
(0.00272854 0.0138588 6.62554e-16)
(0.00345691 0.0192959 5.68779e-16)
(0.00447964 0.024724 4.74434e-16)
(0.00580304 0.0301145 3.80457e-16)
(0.00740026 0.0354383 3.00898e-16)
(0.00925983 0.0406466 2.23721e-16)
(0.0113461 0.0456491 1.4991e-16)
(0.0136312 0.0503833 8.61636e-17)
(0.0163071 0.0549952 2.4126e-17)
(0.0192146 0.0599373 -2.10206e-18)
(0.0223095 0.0649321 -5.08225e-17)
(0.0256913 0.0695463 -8.02062e-17)
(0.0292493 0.0738511 -1.25271e-16)
(0.0329597 0.0779033 -1.32283e-16)
(0.0368373 0.081714 -1.56729e-16)
(0.0408658 0.0852943 -1.7108e-16)
(0.0450321 0.0886167 -1.84349e-16)
(0.0493043 0.091724 -2.07599e-16)
(0.0537443 0.0946341 -2.108e-16)
(0.0584008 0.0972995 -2.32116e-16)
(0.0631672 0.0997111 -2.31212e-16)
(0.0680535 0.101907 -2.49924e-16)
(0.0730061 0.10387 -2.47463e-16)
(0.0780185 0.105555 -2.78319e-16)
(0.0831252 0.10698 -2.54708e-16)
(0.0882582 0.108151 -2.78296e-16)
(0.0934376 0.109027 -2.55807e-16)
(0.0986333 0.109655 -2.90684e-16)
(0.103851 0.109998 -2.72635e-16)
(0.109061 0.110058 -2.91414e-16)
(0.114241 0.109856 -2.75852e-16)
(0.1194 0.10941 -2.97006e-16)
(0.12451 0.108631 -2.81652e-16)
(0.129551 0.107647 -2.89578e-16)
(0.134518 0.106361 -2.82783e-16)
(0.1394 0.104841 -2.85492e-16)
(0.144171 0.103034 -2.90653e-16)
(0.148821 0.101013 -2.82108e-16)
(0.153348 0.0987346 -2.82147e-16)
(0.15771 0.0962021 -2.80662e-16)
(0.161925 0.0934899 -2.82119e-16)
(0.165963 0.0905143 -2.76939e-16)
(0.169814 0.0873439 -2.76315e-16)
(0.173476 0.0839825 -2.77768e-16)
(0.176919 0.0804137 -2.72213e-16)
(0.180151 0.0766782 -2.74256e-16)
(0.183142 0.0727465 -2.66832e-16)
(0.185895 0.0686758 -2.70182e-16)
(0.188408 0.0644498 -2.60201e-16)
(0.190639 0.0600816 -2.61405e-16)
(0.192626 0.0556107 -2.54227e-16)
(0.194319 0.0510314 -2.54507e-16)
(0.195757 0.0463513 -2.45965e-16)
(0.196874 0.0416249 -2.48516e-16)
(0.197723 0.0368332 -2.41749e-16)
(0.198251 0.0319946 -2.41593e-16)
(0.198459 0.0271368 -2.34633e-16)
(0.198348 0.0222312 -2.35303e-16)
(0.197896 0.0173462 -2.27327e-16)
(0.197108 0.0124884 -2.30188e-16)
(0.195999 0.00765197 -2.2142e-16)
(0.194531 0.00291418 -2.24023e-16)
(0.192744 -0.00177219 -2.15316e-16)
(0.190606 -0.00632913 -2.18551e-16)
(0.188114 -0.0107904 -2.09443e-16)
(0.185272 -0.0150941 -2.13172e-16)
(0.182074 -0.0192135 -2.02919e-16)
(0.178523 -0.0231581 -2.06904e-16)
(0.174586 -0.026843 -1.99005e-16)
(0.170277 -0.0303465 -2.01509e-16)
(0.165572 -0.0335799 -1.93993e-16)
(0.160468 -0.0364913 -1.96224e-16)
(0.15493 -0.039076 -1.89867e-16)
(0.148961 -0.041284 -1.9406e-16)
(0.142564 -0.0430393 -1.84866e-16)
(0.135679 -0.0442943 -1.87276e-16)
(0.128259 -0.0449685 -1.85137e-16)
(0.120293 -0.0450913 -1.81151e-16)
(0.111683 -0.0446118 -1.7774e-16)
(0.102352 -0.0432819 -1.78099e-16)
(0.0922974 -0.0409755 -1.73442e-16)
(0.0815136 -0.0377684 -1.75941e-16)
(0.0701107 -0.0338329 -1.77699e-16)
(0.0581936 -0.0290797 -1.75512e-16)
(0.0457057 -0.0231787 -1.64317e-16)
(0.0330238 -0.0162822 -1.69236e-16)
(0.0212551 -0.00936143 -1.76271e-16)
(0.0115535 -0.00375152 -1.97575e-16)
(0.00459906 -0.000375486 -1.80398e-17)
(-0.00012578 0.00202856 -2.81604e-17)
(-0.00359812 0.00422171 -4.48676e-17)
(-0.0060216 0.00593328 -8.32787e-18)
(-0.00763214 0.00733501 3.12535e-17)
(-0.00856981 0.00846818 -5.99906e-18)
(-0.00901162 0.00935513 -7.67302e-18)
(-0.00920829 0.0100088 1.03068e-17)
(-0.00926205 0.0105575 7.15269e-17)
(-0.00921688 0.011036 -1.85903e-17)
(-0.00910419 0.0114839 4.66177e-17)
(-0.00896717 0.0119464 -1.549e-17)
(-0.00884659 0.0124804 5.67319e-17)
(-0.00877143 0.0131064 4.294e-17)
(-0.00874844 0.013858 -1.65696e-17)
(-0.00876207 0.0147205 2.81521e-17)
(-0.00880071 0.0156773 5.46504e-18)
(-0.00882711 0.0166892 2.29471e-17)
(-0.00882914 0.0177183 -2.23455e-17)
(-0.00879615 0.0187229 1.75921e-17)
(-0.00870088 0.0196618 -1.45231e-17)
(-0.00852638 0.0204661 6.44147e-18)
(-0.00825765 0.0210853 -8.29722e-18)
(-0.00790362 0.0214943 6.39006e-18)
(-0.00745209 0.0216398 8.65278e-19)
(-0.00692512 0.0215397 -5.88683e-18)
(-0.00632246 0.0211774 2.20715e-18)
(-0.00568537 0.0205541 -4.63187e-18)
(-0.0050112 0.0195964 -8.29421e-18)
(-0.00430901 0.018445 -1.07421e-17)
(-0.0036615 0.017228 1.95711e-18)
(-0.00309346 0.0157996 -5.49635e-18)
(-0.00257887 0.014048 -3.98447e-19)
(-0.00210983 0.0119731 -8.54705e-18)
(-0.00171473 0.00962371 -1.10769e-18)
(-0.00141759 0.00706954 -7.45911e-18)
(-0.00123497 0.00436468 4.76008e-19)
(-0.00116127 0.00153321 -3.32855e-18)
(-0.00180951 -0.00125931 -2.55721e-18)
(-0.00189081 -0.0039587 -3.54122e-18)
(-0.00207557 -0.00668114 -2.03691e-18)
(-0.00235689 -0.00931047 -5.443e-18)
(-0.00270768 -0.0117226 -1.86067e-18)
(-0.00310808 -0.0138547 -4.80797e-18)
(-0.00353797 -0.015702 -2.67422e-19)
(-0.00404065 -0.0172527 -3.98408e-18)
(-0.00464597 -0.0185437 -9.10753e-18)
(-0.00527953 -0.0196155 -4.82334e-18)
(-0.00590497 -0.0205075 9.72847e-18)
(-0.00649302 -0.0211725 -1.54157e-19)
(-0.0070309 -0.0215671 -3.40357e-18)
(-0.00751309 -0.0217225 -7.41784e-18)
(-0.00792407 -0.0216542 -5.3645e-18)
(-0.00825 -0.0213286 -1.06565e-17)
(-0.00851507 -0.0208081 -1.13536e-17)
(-0.00871357 -0.0201259 1.79729e-18)
(-0.00885911 -0.0193136 -2.75582e-17)
(-0.00894961 -0.0183956 1.98486e-18)
(-0.00896671 -0.0173801 -1.02315e-17)
(-0.00893234 -0.0163324 3.82199e-18)
(-0.00889992 -0.0153211 1.70121e-17)
(-0.00888576 -0.0143837 -3.15822e-18)
(-0.00890301 -0.0135373 1.51813e-17)
(-0.00896353 -0.01281 -1.90796e-17)
(-0.00905708 -0.0122003 -2.72419e-17)
(-0.00915992 -0.011673 -2.52656e-17)
(-0.00919114 -0.0111361 -1.98564e-17)
(-0.00914175 -0.0105795 1.26e-17)
(-0.00897404 -0.0099557 -6.67117e-18)
(-0.00863181 -0.00927068 3.19714e-17)
(-0.00791188 -0.00845113 -8.33842e-18)
(-0.00656893 -0.00729322 -2.47924e-17)
(-0.00430253 -0.00570451 -1.6486e-17)
(-0.000688411 -0.0033558 1.52325e-17)
(0.00478516 1.4432e-05 -3.61275e-17)
(0.0123381 0.00436997 -1.17435e-16)
(0.0213958 0.00885824 -9.04906e-17)
(0.0317164 0.0132157 -1.2991e-16)
(0.0436192 0.0187537 -1.22329e-16)
(0.0570237 0.0255601 -1.25563e-16)
(0.0709581 0.0324365 -1.12892e-16)
(0.0839936 0.0379676 -1.15356e-16)
(0.0957557 0.0419973 -1.11432e-16)
(0.106554 0.0450416 -1.08275e-16)
(0.116594 0.0471924 -1.10056e-16)
(0.125962 0.0483819 -1.06999e-16)
(0.134548 0.0487471 -1.04104e-16)
(0.142434 0.048434 -1.07507e-16)
(0.149791 0.0473956 -1.02042e-16)
(0.15664 0.0458571 -1.06541e-16)
(0.162966 0.0438206 -1.03661e-16)
(0.168847 0.0413853 -1.03283e-16)
(0.174291 0.0385462 -9.70152e-17)
(0.179312 0.0353749 -9.80535e-17)
(0.183924 0.0318827 -9.93915e-17)
(0.188133 0.0281166 -9.8215e-17)
(0.191935 0.0240755 -9.7053e-17)
(0.195349 0.0198147 -9.69598e-17)
(0.198357 0.0153932 -9.60757e-17)
(0.201004 0.0108154 -9.72774e-17)
(0.203298 0.00608318 -9.70733e-17)
(0.205215 0.00126243 -9.82669e-17)
(0.206785 -0.00367128 -9.77118e-17)
(0.207993 -0.0086596 -9.96793e-17)
(0.208871 -0.0137184 -9.92466e-17)
(0.209369 -0.0187956 -1.01106e-16)
(0.209568 -0.023884 -1.01314e-16)
(0.209381 -0.0289814 -1.04552e-16)
(0.208901 -0.0340252 -1.04764e-16)
(0.208093 -0.0390355 -1.08603e-16)
(0.206966 -0.0439936 -1.0822e-16)
(0.205576 -0.0488725 -1.07843e-16)
(0.203843 -0.0536854 -1.12956e-16)
(0.201852 -0.0583884 -1.16562e-16)
(0.19955 -0.0629602 -1.17162e-16)
(0.196995 -0.0674183 -1.21596e-16)
(0.194155 -0.071713 -1.1939e-16)
(0.191075 -0.075832 -1.26532e-16)
(0.187765 -0.0798069 -1.19876e-16)
(0.184193 -0.0835702 -1.30578e-16)
(0.180408 -0.0871543 -1.22534e-16)
(0.176407 -0.0904937 -1.30409e-16)
(0.172239 -0.093649 -1.27234e-16)
(0.167865 -0.0965785 -1.34958e-16)
(0.163323 -0.0992282 -1.373e-16)
(0.158658 -0.101695 -1.46628e-16)
(0.153829 -0.103873 -1.44494e-16)
(0.148896 -0.105798 -1.60334e-16)
(0.143856 -0.107498 -1.50033e-16)
(0.138707 -0.108893 -1.64253e-16)
(0.133487 -0.110054 -1.60717e-16)
(0.128201 -0.110905 -1.74722e-16)
(0.122859 -0.111542 -1.78448e-16)
(0.117476 -0.111838 -1.93202e-16)
(0.112084 -0.111896 -1.99067e-16)
(0.106673 -0.111678 -2.02747e-16)
(0.101266 -0.111171 -2.09254e-16)
(0.0958887 -0.110384 -2.1199e-16)
(0.0905377 -0.109344 -2.25868e-16)
(0.0852395 -0.108014 -2.29216e-16)
(0.0799968 -0.106431 -2.5817e-16)
(0.0748395 -0.104556 -2.56835e-16)
(0.0697602 -0.102424 -2.75335e-16)
(0.0647481 -0.0999767 -2.783e-16)
(0.0598135 -0.0971812 -2.92663e-16)
(0.0549791 -0.0941798 -3.00154e-16)
(0.0503467 -0.0910655 -3.26197e-16)
(0.045955 -0.0878281 -3.1602e-16)
(0.0417646 -0.0843915 -3.57157e-16)
(0.037747 -0.0807346 -3.48812e-16)
(0.0339003 -0.0768855 -3.86026e-16)
(0.0302488 -0.072849 -3.897e-16)
(0.0267978 -0.0686329 -4.15965e-16)
(0.023576 -0.064213 -4.27614e-16)
(0.0205592 -0.0596843 -4.48223e-16)
(0.0176751 -0.0551715 -4.6079e-16)
(0.0151004 -0.0504845 -4.59876e-16)
(0.0128409 -0.0455294 -4.75688e-16)
(0.0107701 -0.0403692 -4.98747e-16)
(0.00892421 -0.0350702 -5.05316e-16)
(0.00734335 -0.0296974 -5.13116e-16)
(0.00602713 -0.0242891 -5.10676e-16)
(0.00501344 -0.0188524 -5.18682e-16)
(0.00426922 -0.0134214 -4.98732e-16)
(0.00382048 -0.00801552 -5.22104e-16)
(0.00363131 -0.00264976 -5.19448e-16)
(0.00363057 0.0026898 8.77775e-16)
(0.00381823 0.00805514 6.53225e-16)
(0.00427431 0.0134616 4.73812e-16)
(0.00501505 0.0188949 3.20613e-16)
(0.00603566 0.0243339 1.56398e-16)
(0.00735075 0.0297495 3.44662e-17)
(0.00893813 0.0351306 -7.85914e-17)
(0.0107855 0.0404398 -1.72134e-16)
(0.0128589 0.0456028 -2.61436e-16)
(0.0151162 0.0505568 -3.34166e-16)
(0.0176904 0.0552367 -3.682e-16)
(0.0205743 0.0597453 -4.31712e-16)
(0.0235953 0.0642723 -4.74118e-16)
(0.0268156 0.0686936 -5.05132e-16)
(0.0302665 0.0729088 -5.39404e-16)
(0.0339228 0.0769476 -5.52626e-16)
(0.0377767 0.0808026 -5.93081e-16)
(0.0417976 0.08446 -5.83499e-16)
(0.0459876 0.0878915 -6.216e-16)
(0.0503753 0.0911235 -6.01217e-16)
(0.0550071 0.0942246 -6.18703e-16)
(0.059838 0.0972266 -6.09642e-16)
(0.0647645 0.100006 -6.0414e-16)
(0.0697938 0.102466 -5.94491e-16)
(0.0748703 0.104608 -5.90222e-16)
(0.0800135 0.106462 -5.73722e-16)
(0.0852663 0.10805 -5.7683e-16)
(0.0905613 0.109382 -5.58477e-16)
(0.0959123 0.110419 -5.52386e-16)
(0.10129 0.111205 -5.33406e-16)
(0.106699 0.11171 -5.18216e-16)
(0.11211 0.111927 -5.0004e-16)
(0.117505 0.111868 -4.839e-16)
(0.122891 0.111575 -4.76546e-16)
(0.128234 0.110936 -4.59189e-16)
(0.133519 0.110083 -4.50673e-16)
(0.13874 0.108923 -4.28952e-16)
(0.143889 0.107526 -4.21075e-16)
(0.14893 0.105825 -3.89461e-16)
(0.153861 0.103899 -3.90002e-16)
(0.158691 0.101722 -3.66818e-16)
(0.16336 0.0992544 -3.6476e-16)
(0.167899 0.0965997 -3.4618e-16)
(0.17227 0.0936703 -3.40692e-16)
(0.176438 0.0905162 -3.23203e-16)
(0.180436 0.0871728 -3.18872e-16)
(0.184208 0.0835892 -2.98088e-16)
(0.187781 0.0798304 -2.97784e-16)
(0.19111 0.0758593 -2.79155e-16)
(0.194194 0.0717294 -2.76086e-16)
(0.197037 0.0674321 -2.62465e-16)
(0.19959 0.0629751 -2.57816e-16)
(0.201884 0.0583961 -2.47248e-16)
(0.203882 0.0536963 -2.42892e-16)
(0.205604 0.0488804 -2.37666e-16)
(0.206999 0.0440003 -2.30502e-16)
(0.208122 0.0390425 -2.21154e-16)
(0.208926 0.034029 -2.18756e-16)
(0.209412 0.028986 -2.11378e-16)
(0.209587 0.0238859 -2.10413e-16)
(0.2094 0.0187983 -2.02706e-16)
(0.208886 0.0137199 -2.01721e-16)
(0.208021 0.00865972 -1.94035e-16)
(0.206798 0.00367308 -1.94279e-16)
(0.205238 -0.00126465 -1.87388e-16)
(0.203309 -0.00608113 -1.87744e-16)
(0.201022 -0.0108161 -1.82105e-16)
(0.198369 -0.0153919 -1.83364e-16)
(0.195362 -0.0198163 -1.77716e-16)
(0.191945 -0.0240741 -1.78761e-16)
(0.188145 -0.0281178 -1.73245e-16)
(0.183934 -0.0318839 -1.744e-16)
(0.179321 -0.0353762 -1.71759e-16)
(0.174298 -0.0385472 -1.76511e-16)
(0.168853 -0.0413864 -1.66545e-16)
(0.162971 -0.0438211 -1.71088e-16)
(0.156643 -0.0458575 -1.66836e-16)
(0.149793 -0.0473947 -1.73842e-16)
(0.142434 -0.0484331 -1.68657e-16)
(0.134546 -0.0487449 -1.75233e-16)
(0.125958 -0.048379 -1.73412e-16)
(0.116587 -0.0471886 -1.73465e-16)
(0.106547 -0.0450369 -1.7735e-16)
(0.0957448 -0.0419905 -1.77355e-16)
(0.0839773 -0.0379578 -1.75444e-16)
(0.0709427 -0.0324275 -1.7829e-16)
(0.0570148 -0.0255605 -1.58871e-16)
(0.0436193 -0.0187638 -1.73725e-16)
(0.031717 -0.0132219 -1.4648e-16)
(0.0213984 -0.00885686 -2.08159e-16)
(0.0123486 -0.00437395 -1.14302e-16)
(0.00480486 -2.96553e-05 -5.86393e-17)
(-0.000666878 0.00333857 -3.31537e-17)
(-0.00428589 0.00569006 2.82653e-17)
(-0.00655591 0.00728366 1.86316e-17)
(-0.00790237 0.00844388 1.28691e-17)
(-0.00862533 0.00926843 -3.40494e-17)
(-0.00897187 0.00995588 7.33316e-18)
(-0.00914071 0.010581 -1.20613e-17)
(-0.00919149 0.0111387 1.54389e-17)
(-0.00916133 0.0116771 3.32748e-17)
(-0.00905976 0.0122059 4.22474e-17)
(-0.00896689 0.0128166 6.09906e-18)
(-0.00890684 0.0135456 -1.191e-17)
(-0.00889059 0.0143953 -6.95106e-18)
(-0.00890696 0.0153383 -6.05539e-18)
(-0.00894235 0.0163558 1.88299e-18)
(-0.00897937 0.0174103 3.2308e-18)
(-0.0089641 0.0184326 -1.1091e-18)
(-0.00887597 0.0193585 2.19144e-17)
(-0.00873283 0.0201797 -2.32836e-18)
(-0.0085363 0.0208711 6.88499e-18)
(-0.00827309 0.0214007 6.48812e-18)
(-0.00794844 0.0217356 -1.49966e-18)
(-0.00753819 0.0218125 1.39807e-18)
(-0.00705657 0.021666 -1.53568e-18)
(-0.00651923 0.0212803 -1.26659e-17)
(-0.00593103 0.0206231 -1.17314e-17)
(-0.00530464 0.0197389 -5.49932e-18)
(-0.00466958 0.0186748 3.64607e-18)
(-0.00406251 0.0173902 -8.98696e-19)
(-0.00355806 0.0158463 -4.81812e-18)
(-0.00312508 0.014004 -3.82841e-18)
(-0.00272159 0.0118756 -2.2947e-18)
(-0.00236774 0.00946591 -1.07516e-18)
(-0.00208338 0.00683835 -2.30132e-18)
(-0.00189574 0.00411668 -1.83856e-18)
(-0.0018112 0.00141901 -2.64567e-18)
(-0.00245496 -0.00123404 -2.28109e-18)
(-0.00252718 -0.00384479 -2.57337e-18)
(-0.00267699 -0.00640621 -1.05943e-18)
(-0.00287886 -0.00883981 -5.27149e-18)
(-0.00313286 -0.0111059 -4.68337e-18)
(-0.00345118 -0.01318 -5.16654e-18)
(-0.0038335 -0.0150651 -5.8488e-18)
(-0.00430845 -0.016743 -5.78568e-18)
(-0.00488509 -0.0181648 2.33139e-18)
(-0.00549614 -0.0193327 -7.41503e-18)
(-0.00606134 -0.0202546 -1.40411e-18)
(-0.00658417 -0.0209177 -3.43997e-18)
(-0.00707286 -0.0213316 -2.96081e-18)
(-0.00749901 -0.02149 3.89013e-19)
(-0.00785814 -0.0214411 -2.47311e-18)
(-0.00813849 -0.0211468 -1.99213e-18)
(-0.00837516 -0.0206711 -3.86266e-18)
(-0.00855654 -0.0200441 -2.58729e-18)
(-0.00869187 -0.0193016 -7.62926e-19)
(-0.00876694 -0.0184665 3.47028e-18)
(-0.00879473 -0.0175345 3.17915e-18)
(-0.00879611 -0.0165342 -7.4114e-18)
(-0.00877893 -0.0155192 -1.61692e-17)
(-0.00877472 -0.0145566 -1.66864e-17)
(-0.00880428 -0.0136869 -2.18009e-17)
(-0.00886312 -0.0129109 2.03764e-17)
(-0.00892932 -0.0122086 -4.22083e-19)
(-0.00893454 -0.0115592 -5.66531e-18)
(-0.00883036 -0.0108932 -6.71182e-18)
(-0.00859429 -0.0101757 1.85809e-17)
(-0.00816138 -0.00934416 -4.74148e-17)
(-0.00739681 -0.00833005 -2.15718e-19)
(-0.00614946 -0.00706687 -1.21752e-17)
(-0.00416472 -0.00560011 1.85072e-17)
(-0.00113163 -0.00386658 -8.53886e-18)
(0.00321949 -0.00183643 -2.12267e-17)
(0.00939277 0.000961919 -6.91485e-17)
(0.0180356 0.00497335 -1.35257e-16)
(0.0296697 0.0106247 -1.15393e-16)
(0.0432303 0.0174366 -1.17197e-16)
(0.0570288 0.0238619 -1.16809e-16)
(0.0706449 0.0299325 -1.10102e-16)
(0.0841859 0.0359976 -1.09468e-16)
(0.0971114 0.04147 -1.05654e-16)
(0.108805 0.0456362 -9.09943e-17)
(0.119348 0.0485809 -9.08923e-17)
(0.129017 0.0504853 -7.44167e-17)
(0.137983 0.0514352 -7.28457e-17)
(0.14625 0.0515381 -6.09866e-17)
(0.153848 0.0509685 -5.46554e-17)
(0.160893 0.049797 -4.52174e-17)
(0.167447 0.0480576 -3.67326e-17)
(0.17353 0.045816 -2.83932e-17)
(0.179144 0.0430974 -2.30388e-17)
(0.184289 0.0400026 -1.54865e-17)
(0.188978 0.0365835 -1.12611e-17)