/*--------------------------------*- C++ -*----------------------------------*\
| =========                 |                                                 |
| \\      /  F ield         | OpenFOAM: The Open Source CFD Toolbox           |
|  \\    /   O peration     | Version:  v2006                                 |
|   \\  /    A nd           | Website:  www.openfoam.com                      |
|    \\/     M anipulation  |                                                 |
\*---------------------------------------------------------------------------*/
FoamFile
{
    version     2.0;
    format      ascii;
    class       volScalarField;
    location    "14.8";
    object      p;
}
// * * * * * * * * * * * * * * * * * * * * * * * * * * * * * * * * * * * * * //

dimensions      [1 -1 -2 0 0 0 0];


internalField   nonuniform List<scalar> 
341797
(
0.94997
0.950067
0.952225
0.947777
0.950529
0.951163
0.952149
0.953797
0.947461
0.948107
0.951074
0.951684
0.952158
0.952242
0.954534
0.955369
0.949826
0.947269
0.946245
0.94717
0.950564
0.952761
0.952059
0.95633
0.952171
0.954776
0.954694
0.956094
0.956657
0.949619
0.946095
0.946699
0.945697
0.947448
0.951255
0.9498
0.955015
0.953006
0.956478
0.951135
0.955823
0.954732
0.956062
0.956402
0.960334
0.947772
0.949337
0.946128
0.942831
0.946787
0.942717
0.944894
0.946268
0.952431
0.946832
0.950063
0.956164
0.95354
0.954126
0.959578
0.957711
0.951716
0.947922
0.954826
0.954536
0.956421
0.955939
0.956026
0.959818
0.960719
0.960908
0.947191
0.949122
0.951769
0.945854
0.941289
0.940897
0.945352
0.942785
0.944718
0.955681
0.952445
0.945424
0.946619
0.947655
0.960086
0.953377
0.957308
0.954436
0.960234
0.96009
0.950631
0.951596
0.947415
0.957223
0.956669
0.957998
0.958622
0.958974
0.960506
0.961755
0.963099
0.947042
0.94664
0.950607
0.951971
0.941905
0.939838
0.94082
0.940087
0.940583
0.945871
0.940696
0.941225
0.955858
0.954005
0.949261
0.94321
0.943832
0.94585
0.95943
0.95521
0.953253
0.959247
0.955047
0.961052
0.961074
0.962051
0.951942
0.947943
0.954434
0.948993
0.946258
0.95775
0.956954
0.958085
0.958318
0.96035
0.959323
0.960102
0.964513
0.960664
0.964822
0.965502
0.946932
0.946552
0.950736
0.951358
0.941463
0.939703
0.939718
0.941964
0.937929
0.940081
0.945204
0.940853
0.955738
0.954124
0.94704
0.946057
0.943493
0.941284
0.96168
0.955147
0.955692
0.954638
0.961037
0.9609
0.96072
0.956042
0.963461
0.962331
0.962612
0.950949
0.947687
0.953556
0.949859
0.946757
0.957027
0.956247
0.95853
0.957916
0.960014
0.961175
0.961603
0.965415
0.965505
0.959851
0.965986
0.964953
0.967753
0.94389
0.946772
0.949023
0.950184
0.953643
0.940794
0.94024
0.937579
0.940919
0.937227
0.937834
0.940698
0.94274
0.941417
0.9557
0.959683
0.952741
0.953711
0.942597
0.947886
0.942009
0.941816
0.940916
0.955278
0.956088
0.959514
0.953051
0.962209
0.959183
0.963143
0.954475
0.963796
0.963478
0.963149
0.962917
0.966332
0.951278
0.94858
0.947821
0.947578
0.94334
0.954921
0.957723
0.958154
0.959735
0.960434
0.962117
0.961231
0.964408
0.964401
0.966893
0.967394
0.962677
0.968443
0.969824
0.967769
0.968725
0.944075
0.941206
0.948077
0.949033
0.951552
0.953744
0.938598
0.93955
0.936658
0.935748
0.938182
0.939999
0.935985
0.937007
0.938006
0.940446
0.94063
0.941552
0.95359
0.958691
0.960093
0.948737
0.94876
0.957631
0.941368
0.942468
0.945971
0.941243
0.940964
0.957806
0.958651
0.952458
0.960121
0.952465
0.963142
0.960544
0.963098
0.954626
0.965114
0.964367
0.965515
0.963264
0.966216
0.965316
0.94893
0.946442
0.945893
0.942201
0.943207
0.941997
0.954745
0.956905
0.958527
0.959855
0.960242
0.962348
0.964168
0.964397
0.966507
0.970173
0.966303
0.96672
0.961955
0.971265
0.969735
0.973849
0.971103
0.968868
0.971379
0.943527
0.941397
0.94819
0.948937
0.951597
0.953106
0.938132
0.938332
0.936913
0.935169
0.935768
0.937967
0.939315
0.933051
0.935526
0.937779
0.936007
0.938917
0.93887
0.952726
0.958254
0.959536
0.961958
0.948925
0.948185
0.949642
0.957244
0.941858
0.943737
0.941098
0.938889
0.957495
0.958789
0.952195
0.960632
0.960813
0.962448
0.953327
0.966271
0.965882
0.966248
0.967153
0.9646
0.965311
0.949517
0.944485
0.942021
0.952616
0.94569
0.94365
0.938134
0.944895
0.940232
0.956313
0.957841
0.960561
0.959622
0.957447
0.959687
0.959793
0.962197
0.963513
0.96648
0.964832
0.967303
0.970289
0.967779
0.968337
0.970339
0.97398
0.973839
0.976575
0.975695
0.974753
0.974092
0.946017
0.942948
0.939065
0.948551
0.951212
0.951095
0.955316
0.937969
0.937403
0.936581
0.93616
0.931284
0.932351
0.93731
0.931647
0.93268
0.933941
0.935485
0.937019
0.938987
0.940303
0.951888
0.95849
0.959425
0.963569
0.948253
0.94924
0.948468
0.960111
0.935376
0.942988
0.936662
0.934577
0.957093
0.958562
0.95128
0.961329
0.961771
0.963625
0.952605
0.965478
0.970728
0.96857
0.971374
0.975709
0.965067
0.964522
0.965076
0.950989
0.946128
0.941675
0.944794
0.953131
0.951231
0.943984
0.945895
0.941797
0.934962
0.936957
0.939735
0.954764
0.959487
0.963543
0.954213
0.95872
0.96099
0.962769
0.964468
0.966551
0.968492
0.967118
0.970177
0.974579
0.969694
0.968898
0.976142
0.975283
0.977274
0.976684
0.977434
0.976912
0.975422
0.974683
0.945275
0.940323
0.938321
0.950043
0.950674
0.953189
0.955779
0.935928
0.937507
0.933548
0.93631
0.931082
0.929906
0.932275
0.931517
0.935819
0.929419
0.931352
0.932642
0.937256
0.932396
0.939213
0.954869
0.960671
0.961259
0.965442
0.948062
0.948271
0.94801
0.954316
0.962723
0.93523
0.942626
0.933015
0.936822
0.932428
0.933719
0.957901
0.955172
0.958853
0.96231
0.961163
0.963864
0.951377
0.968694
0.973926
0.970276
0.974553
0.974682
0.970297
0.964833
0.969331
0.968861
0.950225
0.942444
0.948873
0.940995
0.936837
0.951821
0.952219
0.944344
0.948522
0.943646
0.938308
0.936642
0.939457
0.9354
0.951306
0.955813
0.95994
0.961035
0.954603
0.959526
0.961195
0.962544
0.964733
0.966517
0.968642
0.970478
0.969002
0.972337
0.974773
0.975995
0.979724
0.977975
0.974529
0.977706
0.97948
0.97866
0.97762
0.976835
0.974561
0.975979
0.945397
0.939273
0.938957
0.950005
0.950811
0.953502
0.954798
0.933256
0.935319
0.936628
0.933303
0.929546
0.930967
0.929904
0.932125
0.930476
0.928736
0.93033
0.930292
0.933054
0.935423
0.953876
0.962205
0.961737
0.96884
0.947691
0.949513
0.9496
0.957303
0.965423
0.93246
0.931907
0.933315
0.937676
0.931291
0.93295
0.933677
0.957894
0.953926
0.96016
0.962452
0.9613
0.966884
0.952392
0.97367
0.975086
0.974502
0.974319
0.977782
0.976624
0.977401
0.970432
0.967168
0.968816
0.972846
0.968854
0.971442
0.940022
0.942503
0.94638
0.94828
0.938809
0.936288
0.936374
0.952341
0.947713
0.953176
0.942281
0.945579
0.947231
0.942753
0.937812
0.938446
0.937531
0.933785
0.936796
0.934315
0.93489
0.95307
0.955102
0.957249
0.960501
0.968368
0.95254
0.958692
0.961277
0.962298
0.965799
0.969197
0.96816
0.973105
0.972645
0.978032
0.979941
0.981483
0.982624
0.974437
0.978382
0.982327
0.984858
0.978473
0.983425
0.982795
0.976921
0.975022
0.947892
0.937503
0.950326
0.951554
0.953458
0.956384
0.932873
0.935107
0.935001
0.93131
0.930537
0.931092
0.928952
0.931085
0.931176
0.930445
0.930792
0.929033
0.928906
0.930931
0.931983
0.932026
0.934754
0.954292
0.961628
0.965418
0.973192
0.970588
0.944372
0.948613
0.950302
0.946465
0.956305
0.957991
0.96435
0.933015
0.932737
0.934535
0.929947
0.930685
0.92969
0.932737
0.958048
0.957663
0.958617
0.965145
0.963668
0.973583
0.965522
0.950789
0.976077
0.9753
0.976144
0.975651
0.979648
0.976665
0.983645
0.976707
0.968316
0.973334
0.96889
0.96705
0.972026
0.971278
0.94008
0.941253
0.938306
0.945307
0.94715
0.937952
0.933784
0.936418
0.939559
0.953116
0.946885
0.939986
0.949946
0.942194
0.946517
0.937787
0.934992
0.939033
0.937065
0.930616
0.939111
0.932023
0.928005
0.929793
0.939404
0.952233
0.953285
0.955839
0.961684
0.962819
0.963141
0.952854
0.955903
0.961031
0.96314
0.964807
0.96889
0.973079
0.974157
0.972502
0.975015
0.972001
0.982865
0.977754
0.984255
0.985069
0.983238
0.982941
0.977873
0.978678
0.979781
0.988352
0.987391
0.98573
0.986999
0.984876
0.984161
0.983898
0.975381
0.948017
0.936948
0.952069
0.954164
0.956978
0.930111
0.930837
0.932514
0.934094
0.930861
0.927638
0.930088
0.927289
0.930658
0.928674
0.930866
0.927422
0.928718
0.928937
0.930657
0.932898
0.955805
0.959638
0.963325
0.964527
0.973077
0.944408
0.949033
0.949215
0.947471
0.949244
0.955427
0.962896
0.95801
0.964191
0.972698
0.929735
0.929289
0.934477
0.928145
0.926813
0.929426
0.92732
0.928098
0.927597
0.959754
0.955347
0.961678
0.965784
0.96292
0.971265
0.973139
0.962969
0.962221
0.950941
0.974923
0.990008
0.975104
0.977348
0.975671
0.974082
0.975257
0.989508
0.978649
0.979156
0.98129
0.988711
0.974421
0.982059
0.966879
0.970667
0.974165
0.967986
0.970879
0.975195
0.971102
0.972681
0.938315
0.942215
0.944292
0.93696
0.937044
0.945774
0.948903
0.936205
0.931226
0.930087
0.936359
0.940189
0.943727
0.950234
0.940887
0.946529
0.949807
0.942452
0.944361
0.946658
0.938258
0.934049
0.939377
0.939083
0.932024
0.93019
0.938968
0.940991
0.926984
0.93063
0.927842
0.929739
0.930261
0.946493
0.9371
0.953017
0.953545
0.958006
0.961032
0.975622
0.962045
0.961014
0.968375
0.950117
0.954515
0.955634
0.961121
0.963355
0.965066
0.977019
0.975838
0.975624
0.975511
0.984493
0.981396
0.984614
0.991439
0.988296
0.99003
0.976916
0.979261
0.990247
0.993534
0.98899
0.990255
0.988059
0.987325
0.986414
0.979832
0.947737
0.935292
0.951506
0.954697
0.956175
0.929175
0.930473
0.931697
0.932537
0.930321
0.926241
0.928004
0.925629
0.929187
0.926569
0.929086
0.924342
0.927838
0.928025
0.928514
0.932531
0.930131
0.954653
0.958545
0.962092
0.967868
0.971915
0.945506
0.950204
0.94876
0.945828
0.957383
0.949134
0.958022
0.963881
0.966951
0.959945
0.964377
0.968277
0.976154
0.974534
0.97741
0.928668
0.928815
0.929247
0.926248
0.934364
0.927008
0.926587
0.924412
0.923472
0.924492
0.927251
0.925573
0.927031
0.925236
0.926075
0.925377
0.959771
0.955106
0.960983
0.971214
0.962543
0.962194
0.972938
0.972347
0.972039
0.958845
0.96272
0.960079
0.963195
0.949399
0.951419
0.990712
0.991099
0.989144
0.977257
0.979404
0.980384
0.979825
0.975997
0.992823
0.979885
0.993228
0.977895
0.979634
0.989167
0.97712
0.988561
0.969611
0.973291
0.977229
0.971068
0.973186
0.97213
0.938186
0.93594
0.943534
0.94459
0.936752
0.937812
0.948058
0.944537
0.945705
0.947294
0.933086
0.928677
0.926874
0.930918
0.94
0.933721
0.946056
0.936567
0.940072
0.949494
0.936976
0.948725
0.944942
0.949781
0.943809
0.9364
0.938721
0.932255
0.941198
0.933627
0.92998
0.927423
0.94091
0.939756
0.945726
0.925601
0.925175
0.92913
0.92511
0.9293
0.927179
0.928938
0.928368
0.931423
0.946714
0.934551
0.952039
0.953387
0.950289
0.955959
0.956436
0.960153
0.971575
0.977952
0.967131
0.957929
0.963318
0.959388
0.967535
0.945508
0.951969
0.960511
0.962608
0.964388
0.977428
0.977594
0.980251
0.980518
0.987127
0.983377
0.98106
0.989779
0.999842
0.996939
0.997663
0.977587
0.987046
0.995705
0.996377
0.998712
0.991723
0.997444
0.989253
0.994693
0.984698
0.98555
0.933104
0.953287
0.954621
0.958067
0.927638
0.929729
0.928782
0.932381
0.925806
0.924989
0.929102
0.92569
0.92609
0.924782
0.92429
0.92733
0.927393
0.932964
0.929731
0.954296
0.956956
0.961286
0.976729
0.949384
0.948847
0.946293
0.954278
0.948794
0.954587
0.96469
0.966268
0.960779
0.966166
0.975667
0.966745
0.979404
0.976645
0.979071
0.980032
0.980722
0.925757
0.925638
0.928737
0.926668
0.926011
0.925212
0.923633
0.920169
0.920752
0.923662
0.924094
0.923371
0.925022
0.925238
0.924439
0.92533
0.923565
0.923543
0.959555
0.958138
0.970204
0.966215
0.961571
0.976967
0.972382
0.973006
0.972399
0.972041
0.958622
0.962272
0.957137
0.958838
0.961211
0.969815
0.948765
0.995521
0.989965
0.99425
0.990455
0.988733
0.978135
0.980737
0.990975
0.982325
0.992546
0.981123
1.00473
0.990753
0.989293
0.998167
0.989825
0.978123
0.979965
0.98643
0.992172
0.978734
0.984479
0.989798
0.971014
0.969819
0.973296
0.97533
0.977277
0.975419
0.975077
0.93822
0.935484
0.943341
0.938612
0.934302
0.936529
0.947354
0.944014
0.945253
0.949046
0.93206
0.9305
0.926135
0.925648
0.928066
0.936054
0.931262
0.933281
0.946054
0.93498
0.937703
0.951243
0.93656
0.937731
0.948175
0.943867
0.943356
0.948556
0.943634
0.935699
0.939512
0.936583
0.932637
0.928243
0.933623
0.932394
0.931435
0.92738
0.927817
0.942758
0.934752
0.943021
0.946974
0.924727
0.922948
0.923636
0.925309
0.928593
0.920829
0.924483
0.922298
0.92896
0.92497
0.928749
0.923474
0.925045
0.936684
0.950397
0.93433
0.952575
0.953402
0.95268
0.956081
0.949518
0.954887
0.9549
0.958179
0.960521
0.972786
0.977746
0.978846
0.963195
0.955787
0.958993
0.965697
0.962519
0.960609
0.980181
0.970575
0.944709
0.941795
0.946611
0.953919
0.952621
0.962279
0.964572
0.966867
0.980481
0.978095
0.982875
0.980418
0.992818
0.986079
0.984416
0.983967
0.992851
1.001
1.00015
1.00035
1.00056
0.991564
1.00411
1.00573
1.0063
1.00131
1.00111
0.988197
1.00161
0.986686
0.932415
0.956543
0.958431
0.927143
0.926613
0.929727
0.924109
0.925434
0.9248
0.924505
0.923427
0.924856
0.923449
0.93134
0.929339
0.956346
0.948674
0.954274
0.948447
0.95425
0.948438
0.949878
0.954435
0.966103
0.964866
0.966894
0.974652
0.955227
0.961546
0.976299
0.973175
0.985487
0.981455
0.977499
0.984986
0.985245
0.992191
0.92321
0.924624
0.924671
0.927001
0.924958
0.925191
0.923237
0.922007
0.920349
0.918969
0.919403
0.91838
0.919353
0.918928
0.925543
0.921151
0.920984
0.923494
0.922053
0.922539
0.922508
0.922563
0.921356
0.960298
0.969712
0.965049
0.975037
0.972726
0.972478
0.98128
0.971235
0.975537
0.971896
0.958168
0.960222
0.960001
0.962263
0.971472
0.956263
0.957044
0.960805
0.964692
0.969287
0.970012
0.948518
0.999833
0.997179
0.994929
1.00265
0.988698
0.996669
0.99194
0.983438
0.978723
0.995712
0.998604
0.981401
0.99808
0.998266
0.98585
1.01038
1.00031
0.999189
0.986503
0.997634
0.998811
0.98145
0.982127
0.989168
0.991048
0.980509
0.986222
0.990298
0.970233
0.974626
0.978576
0.975805
0.982213
0.940066
0.937004
0.933284
0.943412
0.937658
0.937674
0.931992
0.934015
0.93578
0.945817
0.948037
0.944405
0.944003
0.948497
0.931191
0.928418
0.930665
0.926909
0.925432
0.926847
0.922402
0.929473
0.924772
0.936163
0.931339
0.932656
0.942584
0.932411
0.933872
0.937855
0.946294
0.934806
0.936317
0.936861
0.949279
0.946497
0.940905
0.943482
0.942668
0.94292
0.946309
0.953948
0.941481
0.937185
0.929886
0.933344
0.929164
0.928096
0.925325
0.94227
0.943587
0.935086
0.936815
0.944378
0.946728
0.923605
0.924498
0.922428
0.920112
0.921844
0.923399
0.924461
0.927841
0.919352
0.919919
0.920077
0.922532
0.927895
0.930828
0.920321
0.924895
0.929581
0.927834
0.919491
0.925367
0.939946
0.952153
0.951236
0.958562
0.925486
0.932656
0.950132
0.952735
0.953448
0.954194
0.948391
0.949148
0.9552
0.954771
0.954247
0.951011
0.956042
0.9593
0.962102
0.977667
0.987628
0.977384
0.968209
0.962978
0.962565
0.953182
0.954738
0.953539
0.978371
0.965507
0.964606
0.98506
0.967745
0.98145
0.948549
0.94546
0.941043
0.950433
0.953994
0.962684
0.96516
0.967456
0.980785
0.979692
0.984512
0.982342
0.995817
0.990045
0.989048
0.984235
1.0012
1.00078
1.00339
1.00812
1.00084
1.00706
1.00665
1.00403
1.00039
0.994428
1.00493
0.990415
0.956568
0.957527
0.928633
0.923644
0.923845
0.923698
0.921806
0.923722
0.952354
0.954936
0.948076
0.954152
0.950233
0.949946
0.950436
0.956944
0.966191
0.971725
0.966457
0.962419
0.972086
0.974077
0.977977
0.956616
0.956093
0.96503
0.970395
0.983316
0.991906
0.982404
0.984747
0.988242
0.994305
0.923377
0.923098
0.922617
0.923208
0.921395
0.918939
0.922321
0.920651
0.919495
0.919617
0.920561
0.917717
0.918069
0.91755
0.91843
0.915475
0.918539
0.915782
0.922565
0.925844
0.918244
0.917986
0.921805
0.921467
0.922113
0.92076
0.918448
0.960873
0.965318
0.974947
0.971168
0.973645
0.982898
0.972923
0.971234
0.975735
0.971286
0.957742
0.959244
0.9635
0.966217
0.959688
0.959782
0.967228
0.971724
0.970245
0.95531
0.957397
0.958983
0.962279
0.968083
0.967955
0.999707
1.00739
1.00056
1.00678
0.998292
0.993288
0.997103
0.998206
0.994344
0.996378
0.988049
0.99731
0.997528
1.00444
0.990513
1.00086
1.00058
0.997403
0.998708
0.984698
1.01496
1.00124
0.997885
1.00064
0.995856
0.995194
0.999779
0.981911
0.984771
0.988976
0.9927
0.989979
0.979687
0.986913
0.985108
0.993891
0.972758
0.978687
0.977826
0.981791
0.939807
0.934095
0.937102
0.931772
0.935106
0.936619
0.945975
0.941864
0.943784
0.945505
0.94519
0.930255
0.927603
0.927464
0.926075
0.926683
0.921218
0.924117
0.920293
0.919408
0.921334
0.92797
0.922089
0.924946
0.935789
0.937759
0.929039
0.928829
0.928418
0.932561
0.926725
0.933475
0.943919
0.943537
0.928644
0.934447
0.934813
0.946346
0.945943
0.940157
0.944096
0.941448
0.942348
0.942967
0.94723
0.952555
0.937472
0.93113
0.934385
0.930769
0.929154
0.929034
0.926199
0.925514
0.922056
0.939244
0.942871
0.943815
0.936505
0.93749
0.944546
0.945108
0.948477
0.921459
0.920411
0.920593
0.91876
0.918207
0.919536
0.916782
0.918313
0.918097
0.918204
0.920043
0.92065
0.930048
0.934209
0.919816
0.925199
0.933476
0.924959
0.921971
0.919061
0.920471
0.936397
0.936461
0.947412
0.95341
0.952269
0.952787
0.955516
0.958056
0.922512
0.919425
0.925573
0.950569
0.954255
0.955636
0.948793
0.948782
0.951632
0.954225
0.954673
0.95395
0.95404
0.952404
0.950416
0.955978
0.960256
0.967017
0.980424
0.98645
0.983033
0.984808
0.977143
0.967322
0.966728
0.961816
0.965174
0.958027
0.94424
0.951309
0.953989
0.950975
0.95532
0.986838
0.970666
0.989554
0.984749
0.95759
0.975099
0.981301
0.979307
0.955003
0.942304
0.94187
0.940041
0.937684
0.941312
0.935329
0.956833
0.962573
0.96677
0.987169
0.984826
0.989195
0.997607
0.988497
0.99003
0.992227
1.00483
1.0102
1.0157
1.01046
1.00154
1.0065
1.00986
1.01712
1.01765
1.00127
1.00507
0.992811
1.00614
1.00593
0.958108
0.918867
0.922243
0.920069
0.954109
0.948839
0.954045
0.955133
0.950303
0.951242
0.969655
0.972595
0.96901
0.964029
0.971632
0.973249
0.974151
0.97642
0.986316
0.956911
0.957723
0.953536
0.961972
0.966902
0.973906
0.981132
0.990665
0.981839
0.988752
0.987791
0.991054
0.998486
0.92163
0.918662
0.924668
0.919401
0.918314
0.9183
0.919173
0.917227
0.917947
0.920165
0.918888
0.915572
0.917592
0.916934
0.916494
0.916414
0.913185
0.916924
0.913056
0.914679
0.918816
0.920493
0.913084
0.918066
0.914756
0.916785
0.918638
0.91931
0.918317
0.916609
0.971867
0.982807
0.970197
0.972213
0.979693
0.989503
0.972116
0.969957
0.978748
0.969854
0.95606
0.959098
0.959507
0.962693
0.965292
0.960699
0.956067
0.960927
0.965395
0.971729
0.969164
0.955062
0.955388
0.958271
0.966044
0.962595
0.967744
0.968866
1.00752
1.00109
1.00707
1.01709
1.01881
1.01545
1.00262
0.999153
0.994705
0.995979
1.00025
0.996951
0.989984
1.00238
1.00907
1.00242
1.00092
1.01031
0.993231
1.00312
1.00653
1.00783
1.00116
0.999529
0.999022
0.999852
0.993777
1.01672
1.0113
1.01916
1.00119
0.997067
0.996773
1.00137
1.00169
0.983864
0.987665
0.989926
0.985351
0.984989
0.990291
0.996846
0.992886
0.982088
0.93966
0.933431
0.936226
0.938766
0.931652
0.932835
0.935389
0.935421
0.942001
0.945112
0.946505
0.944941
0.927329
0.927309
0.923188
0.920957
0.919727
0.920074
0.920403
0.91831
0.920637
0.928076
0.921908
0.92492
0.934084
0.937035
0.931493
0.928123
0.929629
0.924431
0.924773
0.931554
0.924995
0.93326
0.942228
0.928145
0.929002
0.935968
0.946335
0.945549
0.939189
0.940627
0.942478
0.940176
0.941309
0.93732
0.947807
0.946355
0.948031
0.952847
0.933152
0.931868
0.926669
0.922315
0.9271
0.921545
0.940736
0.944313
0.943602
0.935836
0.937252
0.937644
0.944097
0.945538
0.948471
0.949874
0.920251
0.918926
0.918754
0.917026
0.916337
0.916881
0.915281
0.914409
0.916354
0.917274
0.918216
0.920527
0.933118
0.928909
0.934653
0.914689
0.920932
0.917115
0.928051
0.91795
0.917928
0.917946
0.923632
0.916239
0.917807
0.921278
0.939219
0.942897
0.93922
0.932517
0.946291
0.947588
0.953872
0.949423
0.954544
0.956013
0.950787
0.957213
0.959505
0.921406
0.919452
0.918019
0.922927
0.925645
0.949955
0.95438
0.94698
0.950383
0.954495
0.95393
0.956346
0.952259
0.953135
0.951811
0.951736
0.950295
0.956102
0.957911
0.957471
0.965452
0.97171
0.971878
0.984917
0.994791
0.983179
0.98467
0.990958
0.978215
0.96721
0.96699
0.973341
0.966725
0.9633
0.956501
0.95793
0.959509
0.957611
0.942705
0.948265
0.953031
0.953979
0.952677
0.954847
0.987627
0.969075
0.968663
0.996321
0.991778
0.993772
0.96147
0.971034
0.980998
0.983216
0.978662
0.951793
0.933034
0.937607
0.942133
0.939297
0.940047
0.938311
0.946299
0.958872
0.966141
0.98699
0.989721
0.988508
0.99402
1.0022
0.995479
0.99638
1.0174
1.01889
1.0157
1.01262
1.015
1.02767
1.00771
1.02649
1.00065
1.00775
1.01106
1.00818
0.917531
0.91878
0.949749
0.955335
0.957365
0.94945
0.9525
0.951619
0.970479
0.965512
0.972457
0.972825
0.984291
0.97716
0.979572
0.987099
0.961093
0.956215
0.95938
0.953613
0.963147
0.969454
0.966723
0.97347
0.982194
0.980317
0.992112
0.987367
0.994458
0.989061
0.991955
0.992009
0.998729
0.91869
0.917618
0.920155
0.917633
0.917259
0.915885
0.916489
0.918302
0.917273
0.913913
0.914794
0.916343
0.917556
0.915116
0.915606
0.916984
0.913266
0.912342
0.914549
0.914146
0.910523
0.91064
0.913349
0.915468
0.917507
0.920235
0.910856
0.912696
0.91178
0.91743
0.913432
0.912575
0.915791
0.918381
0.916322
0.91557
0.972433
0.97553
0.981971
0.969262
0.975091
0.972569
0.979182
0.983881
0.987833
0.975554
0.981039
0.978926
0.968519
0.955676
0.960518
0.959104
0.959044
0.965188
0.964918
0.959164
0.955248
0.960698
0.964641
0.967807
0.970286
0.976735
0.970257
0.960214
0.965277
0.969701
0.968772
1.02235
1.0073
1.02414
1.00841
1.01918
1.02795
1.03287
1.02081
1.01821
1.00217
0.999968
0.995566
1.00096
0.997516
0.984517
0.993012
1.00153
1.00523
1.0061
1.01986
0.99704
1.02262
1.02207
0.992483
1.00993
1.01662
1.02117
1.00783
0.999925
1.00016
1.00825
1.02735
1.01545
1.03282
1.00743
1.00103
0.995808
1.0058
0.99964
1.00691
0.986729
0.989798
0.989586
0.987124
0.985147
0.987648
0.994743
0.99405
0.936084
0.929001
0.931114
0.933513
0.934854
0.935735
0.935586
0.941318
0.945007
0.944162
0.926894
0.927221
0.923983
0.92086
0.919085
0.919046
0.919542
0.917333
0.919642
0.92747
0.921731
0.922269
0.92385
0.931878
0.934658
0.93511
0.930336
0.927164
0.928398
0.921792
0.923336
0.927246
0.922954
0.921326
0.933978
0.942454
0.940808
0.928259
0.928246
0.934692
0.945269
0.945661
0.943368
0.939453
0.939148
0.941378
0.940471
0.937951
0.936677
0.937081
0.948394
0.94323
0.946437
0.943447
0.948621
0.949015
0.936075
0.93039
0.926843
0.922143
0.921918
0.924874
0.922484
0.920847
0.941963
0.946555
0.935964
0.937462
0.935436
0.943088
0.945979
0.947225
0.947503
0.949416
0.94691
0.950689
0.916408
0.917694
0.914782
0.915169
0.915471
0.915934
0.915002
0.912855
0.911279
0.913886
0.913812
0.915997
0.916929
0.913892
0.916334
0.918202
0.931048
0.931703
0.915411
0.912678
0.91701
0.916479
0.91451
0.925133
0.912221
0.920498
0.91543
0.921724
0.917979
0.915754
0.91692
0.91753
0.91913
0.939366
0.930988
0.928225
0.940693
0.947307
0.927642
0.935679
0.950966
0.954419
0.959354
0.958726
0.948445
0.951326
0.95679
0.956227
0.957567
0.952542
0.955387
0.963367
0.969761
0.918429
0.91823
0.916098
0.919229
0.924449
0.923576
0.952148
0.946161
0.950314
0.952109
0.952732
0.955035
0.951338
0.954655
0.951396
0.95148
0.947439
0.948523
0.956966
0.960735
0.955226
0.954452
0.964115
0.966992
0.970894
0.972532
0.987263
0.988647
0.992773
0.99599
0.983136
0.983298
0.991029
0.987832
0.979135
0.967303
0.969902
0.961501
0.970313
0.973994
0.960513
0.96325
0.963534
0.954706
0.954975
0.952138
0.952173
0.941573
0.944458
0.949161
0.947787
0.949156
0.953374
0.969381
0.973434
1.00035
0.993227
0.999146
0.993593
0.961698
0.97336
0.985008
0.983932
0.982395
0.954956
0.933335
0.936154
0.939106
0.940741
0.939002
0.934938
0.938281
0.942193
0.93378
0.937641
0.946448
0.958188
0.988253
0.990385
0.992574
0.992687
1.00068
0.993239
0.995264
1.0263
1.02617
1.0172
1.01262
1.01421
1.01923
1.01445
1.03273
1.00846
1.03219
1.02582
1.008
1.00826
1.01346
1.00892
0.956404
0.951265
0.951833
0.965829
0.97471
0.975013
0.985359
0.987432
0.978014
0.988144
0.98824
0.958233
0.96126
0.962383
0.954947
0.970935
0.968942
0.969168
0.977028
0.981978
0.982105
0.993864
0.996886
0.996442
0.998044
0.999514
0.916364
0.920391
0.917979
0.916807
0.913238
0.918048
0.91445
0.913631
0.915812
0.913224
0.91226
0.912065
0.910321
0.909249
0.912492
0.911787
0.915817
0.912974
0.909749
0.909527
0.911147
0.911509
0.913785
0.911879
0.916844
0.914077
0.91962
0.912004
0.911127
0.912637
0.910539
0.915704
0.913393
0.910517
0.911104
0.912655
0.974385
0.974797
0.980245
0.969142
0.970841
0.974622
0.969211
0.981074
0.987031
0.980083
0.957481
0.959814
0.95714
0.967212
0.965019
0.964503
0.96693
0.958971
0.961881
0.95443
0.958173
0.959489
0.963334
0.965654
0.966471
0.972072
0.969253
0.975287
0.979086
0.966864
0.969142
1.01704
1.02657
1.02213
1.00549
1.02434
1.02322
1.02806
1.02329
1.0379
1.0383
1.03844
1.01992
1.02457
1.01153
0.997185
0.999284
1.00562
0.999979
0.997364
0.982933
0.98969
0.99037
1.00384
1.00482
1.01804
1.01777
1.02776
1.00856
1.02042
1.02383
1.03122
1.00772
1.00864
1.00987
1.01312
1.0217
1.02473
1.01547
1.00803
0.99991
1.00586
1.01591
1.02921
1.04091
1.00571
1.00691
1.00215
1.01266
0.99168
0.986348
0.990198
0.987252
0.998155
0.994863
0.928227
0.930165
0.933281
0.934496
0.936314
0.943197
0.943289
0.923897
0.919454
0.916939
0.918687
0.917173
0.917486
0.915295
0.923854
0.921372
0.919416
0.923305
0.931995
0.935835
0.935362
0.92744
0.923999
0.923493
0.929919
0.920551
0.922052
0.925977
0.922477
0.920324
0.923412
0.930788
0.938262
0.927912
0.928533
0.93416
0.94564
0.945182
0.942339
0.941324
0.937134
0.94123
0.938265
0.936821
0.936124
0.935407
0.936225
0.947243
0.942331
0.942836
0.937254
0.945635
0.942378
0.947372
0.949332
0.92934
0.9244
0.921511
0.925899
0.920758
0.925682
0.919696
0.924199
0.918516
0.915249
0.947565
0.937395
0.937134
0.938678
0.942962
0.945387
0.951178
0.949336
0.946952
0.950148
0.945579
0.951441
0.914332
0.914951
0.911872
0.913222
0.915837
0.915485
0.915097
0.912976
0.912382
0.914558
0.91244
0.912742
0.909496
0.911632
0.91256
0.914663
0.914184
0.91482
0.912422
0.913013
0.91555
0.916976
0.930522
0.935164
0.912314
0.909615
0.911995
0.910599
0.915662
0.915353
0.928784
0.912385
0.912235
0.917479
0.920296
0.915845
0.917536
0.91748
0.913956
0.913685
0.915523
0.917208
0.916924
0.9164
0.946775
0.935418
0.935276
0.928298
0.940635
0.944689
0.942067
0.934463
0.932415
0.954864
0.960708
0.961781
0.961765
0.968033
0.951325
0.950654
0.955076
0.959573
0.957187
0.960173
0.9578
0.956616
0.952775
0.953351
0.958575
0.961466
0.963041
0.917684
0.916628
0.912705
0.914631
0.916695
0.918245
0.918539
0.925741
0.917732
0.919926
0.921046
0.948169
0.951524
0.955131
0.952713
0.951904
0.949646
0.949514
0.946382
0.947642
0.957286
0.952776
0.959515
0.954059
0.951988
0.951153
0.963857
0.968332
0.969351
0.98782
0.992676
0.989269
0.994504
1.01191
0.981906
0.981465
0.989655
0.989324
0.986221
0.975887
0.971891
0.975765
0.968557
0.963392
0.960233
0.95762
0.976371
0.97115
0.973913
0.991968
0.95545
0.966404
0.954691
0.961076
0.961066
0.955132
0.950641
0.949282
0.951436
0.951514
0.948487
0.938326
0.94349
0.943992
0.946747
0.94968
0.968377
0.956934
0.971316
0.999715
1.0049
1.00725
0.998752
0.992958
0.997585
0.972928
0.984813
0.997467
0.984132
0.981649
0.947818
0.933768
0.930485
0.937448
0.940006
0.935046
0.933694
0.94358
0.938812
0.937956
0.932858
0.934515
0.952282
0.932608
0.960879
0.991947
1.0044
1.00216
1.00074
0.997161
1.0059
1.0273
1.03003
1.02534
1.025
1.01129
1.01578
1.02755
1.02058
1.04418
1.01195
1.03906
1.03426
1.02416
1.00727
1.01699
1.00962
0.952529
0.954303
0.967788
0.983991
0.974424
0.986246
0.98597
0.987973
0.98407
0.988486
0.98876
0.958562
0.962146
0.971352
0.972019
0.966522
0.970485
0.980108
0.975254
0.982528
0.982671
1.00006
0.998679
0.997655
1.00191
0.912814
0.918922
0.916358
0.912715
0.913935
0.911706
0.912565
0.908131
0.908139
0.909466
0.909885
0.911445
0.909154
0.911946
0.907984
0.909253
0.907501
0.910734
0.910455
0.908879
0.914953
0.916225
0.915002
0.911675
0.911636
0.908738
0.90964
0.911949
0.909517
0.911197
0.906077
0.908327
0.909024
0.97754
0.974751
0.974545
0.978063
0.980654
0.981816
0.969408
0.977656
0.983191
0.983266
0.961754
0.957088
0.965538
0.965155
0.958257
0.960454
0.953097
0.956823
0.958527
0.962353
0.964344
0.965308
0.968506
0.971387
0.970606
0.969655
0.976823
0.97202
1.01587
1.02102
1.02779
1.03615
1.02187
1.03043
1.00816
1.03451
1.02422
1.02681
1.03833
1.05142
1.05796
1.05394
1.0172
1.03723
1.03615
1.00827
1
0.996147
1.00291
0.996065
1.00743
1.00453
0.994041
0.991999
1.00366
0.98885
0.989245
1.00388
1.01483
1.00515
1.02081
1.01431
1.02655
1.03215
1.00833
1.01928
1.02116
1.02443
1.04831
1.00696
1.01213
1.01515
1.01454
1.01024
1.01426
1.01679
1.03583
1.01913
1.03873
1.01524
1.0078
1.0071
1.01212
1.00518
1.00453
1.03982
1.04334
1.04667
1.00726
1.01211
1.00541
0.991154
0.98874
0.998442
0.99586
0.932123
0.94245
0.921855
0.917268
0.920673
0.917674
0.923213
0.92319
0.922394
0.918112
0.918767
0.919361
0.929559
0.933118
0.930695
0.9296
0.922387
0.923246
0.928655
0.929169
0.918192
0.918773
0.923463
0.920052
0.916821
0.919201
0.920766
0.927032
0.925973
0.928438
0.927605
0.933368
0.936094
0.943463
0.943786
0.941104
0.936337
0.937865
0.936293
0.936144
0.935056
0.934804
0.935248
0.937641
0.947507
0.941344
0.941979
0.942136
0.936918
0.946594
0.94537
0.941771
0.942389
0.94859
0.930793
0.918317
0.926337
0.920736
0.925813
0.917612
0.919961
0.926302
0.915115
0.919119
0.935632
0.938609
0.940299
0.93561
0.943223
0.944857
0.946603
0.951162
0.94399
0.94566
0.954629
0.91147
0.912495
0.911472
0.911477
0.911599
0.91236
0.909935
0.91193
0.910186
0.911448
0.909846
0.908754
0.909224
0.912173
0.911918
0.912718
0.913146
0.9116
0.911112
0.910725
0.912905
0.913512
0.917327
0.934635
0.935424
0.907233
0.905984
0.908261
0.911393
0.910018
0.913898
0.913828
0.91358
0.926171
0.929987
0.909931
0.912498
0.911409
0.91156
0.914128
0.918516
0.912229
0.91404
0.91817
0.914638
0.913906
0.912054
0.913148
0.913161
0.915822
0.915925
0.917072
0.914268
0.914379
0.945093
0.943378
0.930837
0.936058
0.934326
0.931785
0.928839
0.937685
0.946601
0.941253
0.942648
0.948004
0.932469
0.929962
0.932364
0.961469
0.961484
0.965047
0.96371
0.970729
0.966125
0.968599
0.970626
0.954518
0.951078
0.948642
0.954159
0.960732
0.958886
0.964261
0.956712
0.958069
0.959967
0.962765