/*--------------------------------*- C++ -*----------------------------------*\
| =========                 |                                                 |
| \\      /  F ield         | OpenFOAM: The Open Source CFD Toolbox           |
|  \\    /   O peration     | Version:  v2006                                 |
|   \\  /    A nd           | Website:  www.openfoam.com                      |
|    \\/     M anipulation  |                                                 |
\*---------------------------------------------------------------------------*/
FoamFile
{
    version     2.0;
    format      ascii;
    class       volScalarField;
    location    "14.8";
    object      pMean;
}
// * * * * * * * * * * * * * * * * * * * * * * * * * * * * * * * * * * * * * //

dimensions      [1 -1 -2 0 0 0 0];


internalField   nonuniform List<scalar> 
341797
(
0.949727
0.949884
0.952014
0.947658
0.950457
0.951025
0.951922
0.953473
0.947381
0.947998
0.951046
0.951492
0.952014
0.95202
0.954282
0.955124
0.949641
0.947227
0.946181
0.94711
0.950534
0.952615
0.951945
0.956291
0.952042
0.954594
0.954458
0.955848
0.956387
0.949579
0.946016
0.946695
0.945628
0.947446
0.951446
0.94986
0.955294
0.952945
0.956238
0.951253
0.95571
0.954549
0.955845
0.956192
0.960231
0.947772
0.949248
0.946098
0.942878
0.946807
0.942768
0.945012
0.946374
0.952697
0.94684
0.950311
0.956329
0.953474
0.954109
0.959493
0.957582
0.951817
0.94801
0.954881
0.954396
0.956175
0.955768
0.955813
0.959608
0.960514
0.960655
0.947201
0.949141
0.951756
0.945824
0.941429
0.941128
0.945502
0.942916
0.94483
0.955693
0.952687
0.945595
0.946641
0.947826
0.96001
0.953364
0.957145
0.954496
0.960227
0.960102
0.950779
0.951888
0.947437
0.957326
0.956729
0.957836
0.958504
0.958721
0.960256
0.961582
0.962885
0.94714
0.946698
0.950725
0.952024
0.941895
0.939896
0.941051
0.940158
0.940795
0.94603
0.940819
0.941458
0.955994
0.95426
0.949583
0.943421
0.944007
0.946005
0.959542
0.955289
0.953316
0.959111
0.955138
0.961087
0.961158
0.961915
0.952081
0.948238
0.954676
0.949287
0.946478
0.958012
0.95699
0.958003
0.958181
0.960169
0.959142
0.959826
0.964304
0.960435
0.964687
0.965288
0.94688
0.946631
0.950875
0.95151
0.941446
0.939841
0.939878
0.942197
0.938054
0.940247
0.945493
0.941083
0.955999
0.954477
0.94722
0.946365
0.94375
0.941538
0.961758
0.955349
0.955818
0.954784
0.960902
0.960888
0.960653
0.956329
0.963416
0.962409
0.962554
0.951184
0.948055
0.953842
0.95021
0.947
0.957316
0.956382
0.958637
0.957842
0.959859
0.960918
0.961493
0.965216
0.965293
0.959672
0.965843
0.964855
0.967492
0.943908
0.946833
0.949235
0.95038
0.953911
0.940879
0.940363
0.937697
0.941148
0.937372
0.938012
0.940928
0.94301
0.941603
0.956073
0.959995
0.953109
0.954057
0.942803
0.948042
0.94233
0.941882
0.941089
0.955512
0.956255
0.959453
0.953255
0.962182
0.959242
0.963209
0.954665
0.963804
0.963475
0.963209
0.962938
0.96618
0.95158
0.949038
0.948143
0.947849
0.943584
0.95547
0.957921
0.958397
0.959777
0.960456
0.961964
0.960924
0.964278
0.96417
0.966724
0.967214
0.962515
0.968197
0.969682
0.967645
0.968494
0.944176
0.941378
0.948317
0.949254
0.951885
0.954017
0.938891
0.939691
0.93668
0.935973
0.938449
0.940246
0.936173
0.937246
0.938262
0.940749
0.940836
0.941631
0.953898
0.959175
0.960543
0.949001
0.949078
0.957993
0.941478
0.942661
0.946205
0.941581
0.941161
0.958079
0.958813
0.952656
0.960181
0.952656
0.963132
0.960584
0.9632
0.954793
0.965316
0.964506
0.965507
0.963372
0.966141
0.965283
0.949195
0.946908
0.946211
0.942391
0.943654
0.942196
0.954791
0.95709
0.958778
0.959942
0.960288
0.962273
0.964044
0.964266
0.966431
0.970075
0.966153
0.96653
0.96188
0.971022
0.969583
0.973997
0.970976
0.96872
0.971137
0.943685
0.941525
0.94841
0.949215
0.951965
0.953463
0.938493
0.938596
0.936917
0.935359
0.936056
0.938227
0.939484
0.933342
0.93585
0.937927
0.936159
0.939215
0.939198
0.953194
0.958736
0.959954
0.962221
0.949228
0.94836
0.950023
0.957697
0.942021
0.943882
0.941353
0.939259
0.957841
0.958978
0.952423
0.960722
0.96088
0.962558
0.953623
0.9667
0.96589
0.966514
0.96714
0.964649
0.965268
0.949782
0.944833
0.942519
0.952894
0.945974
0.943695
0.938506
0.945454
0.94049
0.95677
0.958124
0.960833
0.959927
0.957789
0.959896
0.959896
0.962174
0.963418
0.966424
0.964665
0.96725
0.970266
0.967578
0.968233
0.970082
0.973923
0.973858
0.976439
0.975738
0.974627
0.973976
0.946246
0.943121
0.939328
0.94887
0.951618
0.951456
0.955779
0.938279
0.937721
0.936703
0.936365
0.93159
0.932712
0.937321
0.931931
0.932998
0.934376
0.935857
0.93721
0.939396
0.94054
0.95241
0.958905
0.95983
0.963924
0.948618
0.949728
0.948799
0.960526
0.935542
0.943073
0.936864
0.93486
0.957468
0.958984
0.951631
0.96158
0.961936
0.963766
0.952974
0.96572
0.970657
0.968813
0.971695
0.975816
0.965185
0.964586
0.965101
0.951299
0.946413
0.941988
0.945477
0.953503
0.951553
0.944239
0.946167
0.9419
0.935235
0.937444
0.940006
0.955316
0.959871
0.963933
0.954622
0.959164
0.96133
0.962979
0.964541
0.966503
0.968521
0.967064
0.970223
0.974502
0.969697
0.968962
0.975979
0.975236
0.977354
0.976311
0.977579
0.977047
0.97534
0.974676
0.945576
0.940464
0.93865
0.950408
0.951145
0.953784
0.956283
0.936292
0.937785
0.933928
0.936435
0.93123
0.930181
0.932551
0.931774
0.936083
0.92972
0.93165
0.933065
0.937475
0.932693
0.939476
0.95553
0.960952
0.961588
0.965854
0.948404
0.948721
0.948366
0.954822
0.962914
0.935292
0.94266
0.933286
0.936777
0.932712
0.933912
0.958369
0.955733
0.959324
0.962571
0.961475
0.964087
0.951872
0.968912
0.97413
0.970979
0.974878
0.974777
0.970509
0.96503
0.969489
0.968859
0.950569
0.942754
0.94918
0.941387
0.937798
0.952326
0.952435
0.944592
0.948856
0.943747
0.938413
0.936845
0.939906
0.936132
0.951874
0.956302
0.960293
0.96145
0.955086
0.959896
0.961504
0.96269
0.964802
0.966622
0.968606
0.970423
0.968987
0.972359
0.974869
0.975889
0.979637
0.977896
0.974458
0.977608
0.979694
0.978582
0.977358
0.976868
0.974632
0.975851
0.945703
0.939502
0.939215
0.950371
0.95125
0.95406
0.955318
0.933208
0.935678
0.93696
0.933222
0.929741
0.93111
0.930151
0.932477
0.930691
0.929267
0.930707
0.930781
0.933101
0.935765
0.954433
0.962314
0.962047
0.969456
0.948059
0.950267
0.95003
0.957756
0.966199
0.932664
0.93207
0.933485
0.937644
0.931544
0.933186
0.933897
0.958373
0.954518
0.960653
0.962797
0.961622
0.967417
0.952978
0.973862
0.975367
0.974854
0.974854
0.97805
0.976718
0.977588
0.970604
0.967334
0.968843
0.972929
0.968849
0.971586
0.940353
0.942902
0.946737
0.948643
0.939456
0.936996
0.937434
0.952791
0.948032
0.953413
0.942612
0.945917
0.947739
0.942845
0.937961
0.938557
0.937758
0.93395
0.93746
0.934876
0.935593
0.953684
0.955622
0.957715
0.960981
0.968953
0.953103
0.959106
0.961605
0.96247
0.965857
0.969097
0.968247
0.973107
0.972702
0.978069
0.979858
0.981622
0.982873
0.974741
0.978602
0.982538
0.985254
0.97862
0.983383
0.982782
0.976898
0.975022
0.948511
0.937895
0.950816
0.952148
0.954023
0.956957
0.933326
0.935333
0.935262
0.93145
0.930723
0.931219
0.929621
0.931356
0.931574
0.930731
0.931104
0.929586
0.929565
0.931276
0.932057
0.932199
0.935154
0.954895
0.961859
0.965865
0.973516
0.971188
0.944501
0.948757
0.950669
0.94693
0.956764
0.958376
0.964988
0.933112
0.93292
0.934591
0.930328
0.93092
0.929946
0.932975
0.958502
0.958237
0.959133
0.965493
0.964086
0.973921
0.965827
0.951323
0.976305
0.975556
0.976625
0.976113
0.979784
0.976754
0.983796
0.976974
0.96871
0.973608
0.96896
0.967244
0.97199
0.97132
0.940491
0.941741
0.938933
0.945886
0.94758
0.938554
0.934229
0.937353
0.940291
0.953356
0.94717
0.940743
0.950252
0.942557
0.947086
0.937937
0.935101
0.939311
0.937506
0.931033
0.939594
0.932293
0.928015
0.930631
0.939838
0.952754
0.953878
0.956213
0.962335
0.963374
0.963819
0.953562
0.956175
0.961477
0.963457
0.965332
0.969053
0.973132
0.974178
0.972621
0.975171
0.972093
0.982862
0.977714
0.984332
0.985023
0.983482
0.983249
0.978068
0.979121
0.980006
0.988831
0.987509
0.986002
0.986947
0.984815
0.984084
0.984011
0.975356
0.948568
0.937354
0.952733
0.954772
0.957531
0.930253
0.931101
0.932863
0.934358
0.931074
0.928052
0.930233
0.927534
0.930989
0.929066
0.931263
0.927787
0.929275
0.929553
0.930848
0.933308
0.956031
0.960015
0.963851
0.965081
0.973848
0.944485
0.949591
0.94961
0.947841
0.949885
0.956052
0.963515
0.95839
0.964857
0.973267
0.929926
0.929541
0.934403
0.928549
0.927417
0.929821
0.927528
0.928367
0.927895
0.960289
0.955944
0.962145
0.966136
0.963321
0.971605
0.973379
0.96358
0.962695
0.951438
0.975097
0.990284
0.975335
0.97766
0.976176
0.974324
0.975836
0.989462
0.97873
0.979198
0.981437
0.988673
0.974729
0.982198
0.96732
0.970995
0.974219
0.968161
0.97101
0.975174
0.971202
0.97267
0.938784
0.942656
0.945002
0.937484
0.937614
0.946474
0.949441
0.936733
0.931543
0.930375
0.937065
0.940609
0.943733
0.950295
0.941337
0.946888
0.950238
0.94286
0.944777
0.947255
0.938358
0.934206
0.939688
0.939381
0.932462
0.93073
0.939407
0.941733
0.927141
0.93075
0.927824
0.930141
0.930439
0.946405
0.937199
0.953665
0.954072
0.958581
0.961638
0.975911
0.962609
0.961867
0.96877
0.951881
0.95505
0.955724
0.961559
0.963677
0.965512
0.97695
0.975775
0.975647
0.975635
0.984486
0.981389
0.984582
0.991519
0.988481
0.990483
0.977079
0.979485
0.990222
0.993603
0.988838
0.990346
0.988135
0.987373
0.986512
0.979891
0.948356
0.935702
0.952287
0.955316
0.956766
0.929558
0.930722
0.932125
0.932924
0.930512
0.926701
0.928374
0.926009
0.929624
0.926759
0.929891
0.925025
0.928257
0.928499
0.92877
0.932861
0.930433
0.954949
0.958976
0.962729
0.968516
0.9729
0.945471
0.950548
0.948912
0.945826
0.95804
0.949624
0.958642
0.964422
0.967663
0.960516
0.964946
0.969179
0.976789
0.975153
0.977658
0.929203
0.928977
0.929638
0.927303
0.934276
0.92718
0.926927
0.925027
0.923923
0.925066
0.927511
0.92592
0.927231
0.925567
0.926331
0.925598
0.960288
0.955711
0.961563
0.971471
0.962947
0.962666
0.973248
0.972599
0.972307
0.959435
0.963325
0.960638
0.963646
0.950034
0.952035
0.990822
0.99119
0.989264
0.977677
0.979648
0.980623
0.980169
0.97646
0.992744
0.980077
0.993414
0.977931
0.979773
0.989305
0.97728
0.98867
0.969792
0.973368
0.977306
0.971109
0.973182
0.972119
0.938738
0.936414
0.944138
0.945218
0.937328
0.938363
0.948748
0.945166
0.946411
0.947806
0.933546
0.929314
0.927384
0.931068
0.94056
0.934092
0.946241
0.936077
0.939711
0.949677
0.937539
0.949206
0.945542
0.950165
0.944491
0.936532
0.938951
0.932681
0.941333
0.934088
0.93062
0.928006
0.941185
0.940166
0.946182
0.925798
0.925396
0.92936
0.925296
0.92917
0.927462
0.929434
0.928823
0.931447
0.94697
0.934564
0.952701
0.954009
0.951076
0.956431
0.956861
0.960757
0.971956
0.978197
0.967615
0.959177
0.964027
0.959892
0.96786
0.94657
0.952948
0.960914
0.96295
0.96478
0.977435
0.977807
0.980367
0.980586
0.987113
0.983489
0.981064
0.989776
0.999859
0.997285
0.997668
0.978037
0.987028
0.995556
0.997124
0.999011
0.991793
0.997579
0.98936
0.99471
0.984733
0.985535
0.933381
0.954081
0.955308
0.958664
0.927829
0.929908
0.929005
0.932793
0.92613
0.925618
0.929439
0.926068
0.926846
0.92542
0.925308
0.927895
0.927681
0.933331
0.929948
0.954781
0.957628
0.961957
0.9775
0.949589
0.94928
0.946317
0.955044
0.949371
0.955
0.965231
0.967131
0.96128
0.966744
0.976468
0.967646
0.979908
0.977147
0.97953
0.980415
0.9811
0.926224
0.925737
0.929079
0.927338
0.926237
0.925571
0.924311
0.920447
0.92112
0.924058
0.924659
0.923799
0.925345
0.925574
0.924864
0.925614
0.923835
0.923783
0.960069
0.958752
0.970516
0.966553
0.962057
0.97722
0.972674
0.973279
0.972658
0.972279
0.959183
0.962849
0.957753
0.959383
0.961714
0.97011
0.949321
0.99558
0.99012
0.994246
0.990569
0.988826
0.978682
0.981184
0.991194
0.982517
0.992821
0.981414
1.00474
0.990699
0.989457
0.998263
0.99014
0.978245
0.980059
0.986531
0.992333
0.978783
0.984442
0.990201
0.971124
0.969959
0.973358
0.975483
0.977313
0.975449
0.975177
0.938813
0.935951
0.943969
0.939267
0.93498
0.937157
0.947861
0.944687
0.945869
0.94956
0.932562
0.931188
0.926526
0.926001
0.928491
0.936711
0.931836
0.933354
0.946492
0.93465
0.93759
0.950948
0.937131
0.938277
0.948463
0.944411
0.9439
0.949062
0.944478
0.936118
0.939759
0.936919
0.933503
0.928635
0.933977
0.93297
0.932001
0.927909
0.928373
0.943053
0.935238
0.943482
0.947394
0.924955
0.923084
0.923887
0.925569
0.928798
0.92112
0.924716
0.922532
0.929539
0.92546
0.929346
0.923715
0.925283
0.937515
0.950794
0.934537
0.953305
0.954229
0.953605
0.956612
0.950298
0.955401
0.955328
0.958518
0.961088
0.973103
0.978022
0.979087
0.963565
0.955917
0.960003
0.966323
0.962966
0.960883
0.980454
0.971087
0.945317
0.942624
0.94749
0.954556
0.953857
0.962673
0.964912
0.967134
0.980628
0.978238
0.983033
0.98063
0.992811
0.986171
0.984526
0.983863
0.992886
1.00113
1.00033
1.0006
1.00052
0.99148
1.00412
1.00599
1.00654
1.00119
1.00114
0.988246
1.00187
0.986785
0.932716
0.957216
0.959055
0.927418
0.926886
0.929889
0.92455
0.925983
0.925322
0.925243
0.924045
0.925393
0.923665
0.931778
0.929476
0.956942
0.949004
0.954831
0.948616
0.955059
0.948806
0.95042
0.955096
0.966802
0.965577
0.967689
0.97516
0.955883
0.962071
0.976634
0.97385
0.985555
0.981961
0.978023
0.98543
0.985648
0.992904
0.923813
0.925112
0.924955
0.92746
0.925447
0.925555
0.923623
0.922459
0.920972
0.919474
0.919781
0.918906
0.920377
0.919416
0.925885
0.921649
0.92108
0.924003
0.922546
0.922724
0.922702
0.922758
0.921797
0.960806
0.969884
0.965429
0.975347
0.972996
0.972672
0.981529
0.971444
0.975719
0.972086
0.958754
0.96083
0.960672
0.962797
0.971827
0.956838
0.95765
0.961337
0.965144
0.969591
0.970295
0.949053
0.999812
0.997466
0.994891
1.00261
0.988678
0.99667
0.991807
0.98386
0.979187
0.996181
0.999048
0.981715
0.998065
0.998292
0.986088
1.0105
1.00051
0.999225
0.986855
0.997819
0.998949
0.981571
0.982208
0.989198
0.990986
0.980562
0.986308
0.990228
0.970308
0.974689
0.978667
0.975908
0.982247
0.940649
0.937548
0.933783
0.944083
0.938238
0.938307
0.932546
0.934533
0.936411
0.946446
0.948752
0.945066
0.944608
0.949118
0.9317
0.929035
0.931327
0.927273
0.925767
0.927172
0.922799
0.930085
0.925456
0.936762
0.931832
0.9327
0.942752
0.932351
0.933892
0.937782
0.946311
0.935427
0.936942
0.937493
0.949736
0.946825
0.941542
0.944105
0.943236
0.943618
0.946383
0.954206
0.941789
0.937579
0.930637
0.933991
0.929979
0.928708
0.925828
0.942426
0.943915
0.935489
0.936811
0.944725
0.947242
0.923783
0.924778
0.922621
0.92033
0.922368
0.92356
0.924735
0.928058
0.919755
0.920118
0.920495
0.923069
0.928369
0.931292
0.920894
0.925368
0.930109
0.928207
0.919817
0.925604
0.940815
0.952502
0.951728
0.958637
0.926025
0.933137
0.950905
0.953466
0.954212
0.954791
0.949015
0.94985
0.955626
0.955376
0.954553
0.951631
0.956195
0.959675
0.962617
0.977479
0.987733
0.977604
0.969086
0.963429
0.963134
0.953615
0.955399
0.953978
0.979083
0.965997
0.965079
0.985503
0.968056
0.982012
0.949059
0.945721
0.940757
0.950633
0.954463
0.963053
0.965488
0.967692
0.980924
0.979854
0.984701
0.982633
0.995836
0.990271
0.98926
0.984267
1.00139
1.00139
1.00345
1.00832
1.00086
1.0069
1.00678
1.00412
1.0005
0.994664
1.00509
0.990545
0.95707
0.958111
0.92911
0.924253
0.924527
0.924353
0.922324
0.924402
0.952738
0.955647
0.948362
0.954798
0.950421
0.950231
0.950699
0.957681
0.966678
0.972508
0.967144
0.9636
0.972733
0.974691
0.978446
0.957123
0.956639
0.96534
0.971287
0.984133
0.992564
0.982928
0.98489
0.988631
0.994766
0.923954
0.923828
0.922921
0.923639
0.921966
0.919598
0.922909
0.921108
0.919924
0.920285
0.921232
0.918256
0.918486
0.918106
0.918929
0.916301
0.918856
0.916661
0.922468
0.926086
0.918577
0.918599
0.922208
0.921907
0.922256
0.921129
0.919294
0.96138
0.965645
0.975119
0.971426
0.973795
0.98294
0.973106
0.971451
0.975878
0.971479
0.958346
0.959848
0.964071
0.966703
0.960242
0.96024
0.967569
0.971951
0.970602
0.95598
0.957994
0.959583
0.962752
0.968193
0.968288
0.999755
1.00738
1.00067
1.00698
0.998255
0.993256
0.997112
0.998084
0.994308
0.996346
0.988339
0.997331
0.997387
1.0048
0.991084
1.00117
1.00081
0.997814
0.998818
0.985012
1.01501
1.00111
0.998242
1.00068
0.996177
0.995707
0.999994
0.981982
0.984861
0.989059
0.99261
0.989955
0.979699
0.986717
0.985085
0.993847
0.972882
0.978737
0.977895
0.981815
0.940462
0.93449
0.937686
0.932351
0.935734
0.937247
0.946646
0.942478
0.944359
0.946168
0.945804
0.930754
0.928453
0.928238
0.926583
0.927095
0.921593
0.924418
0.920697
0.919679
0.921836
0.92862
0.92267
0.925496
0.936427
0.938559
0.929477
0.92942
0.928523
0.932297
0.927025
0.933684
0.944249
0.943874
0.929434
0.935142
0.935416
0.946837
0.946377
0.940658
0.944691
0.942039
0.942932
0.943405
0.947445
0.952892
0.937951
0.931917
0.935054
0.93152
0.929959
0.929969
0.92687
0.925757
0.922171
0.939355
0.943078
0.944092
0.936808
0.937686
0.944941
0.945269
0.948938
0.921758
0.920715
0.920837
0.918957
0.918894
0.919762
0.917112
0.918997
0.918725
0.918782
0.920388
0.92118
0.930216
0.934304
0.920144
0.925682
0.933582
0.924648
0.922221
0.919341
0.920676
0.937976
0.936983
0.947954
0.953513
0.953005
0.95321
0.956164
0.958038
0.922811
0.919559
0.925483
0.951302
0.954955
0.956242
0.949389
0.9494
0.952114
0.954752
0.955156
0.954588
0.954208
0.952867
0.950849
0.956408
0.960541
0.967268
0.980276
0.986521
0.983224
0.985031
0.976921
0.96725
0.967014
0.962053
0.965315
0.958494
0.944513
0.952083
0.954418
0.951516
0.955949
0.987322
0.971425
0.99008
0.985043
0.958482
0.975657
0.98218
0.979866
0.954714
0.941793
0.942165
0.940751
0.937386
0.941335
0.936332
0.957179
0.962974
0.967059
0.987286
0.98491
0.989336
0.997713
0.988605
0.990269
0.992507
1.00526
1.01083
1.01619
1.01049
1.00143
1.00632
1.00976
1.0171
1.01775
1.00146
1.00531
0.993055
1.0065
1.00618
0.95867
0.919481
0.922703
0.920637
0.954385
0.948915
0.954668
0.955809
0.950583
0.951915
0.970479
0.973198
0.969959
0.964816
0.972031
0.973902
0.974786
0.976672
0.986337
0.957511
0.958051
0.954126
0.962473
0.967441
0.97359
0.98156
0.991235
0.982407
0.988915
0.988213
0.991691
0.998406
0.922379
0.919355
0.925328
0.919689
0.91882
0.918866
0.919706
0.917916
0.918624
0.920774
0.919512
0.916195
0.918169
0.917457
0.916973
0.91691
0.913971
0.917527
0.913866
0.915397
0.918806
0.920258
0.913431
0.918734
0.915191
0.917477
0.919259
0.919557
0.918832
0.917301
0.972104
0.982937
0.970506
0.972397
0.97975
0.989503
0.972241
0.970164
0.978814
0.970141
0.956612
0.959638
0.96007
0.963301
0.965842
0.961236
0.956544
0.961457
0.965831
0.972021
0.969628
0.955717
0.955967
0.958794
0.966295
0.963171
0.968116
0.969291
1.00735
1.00114
1.00705
1.01722
1.01879
1.01512
1.00252
0.999148
0.994624
0.995838
1.00014
0.996864
0.989943
1.00227
1.00978
1.00277
1.00098
1.0108
0.994104
1.00353
1.00693
1.00819
1.00135
0.999755
0.999428
0.99981
0.993884
1.0166
1.01179
1.01933
1.00122
0.997181
0.996833
1.0018
1.00184
0.983914
0.987752
0.989846
0.985352
0.984999
0.990277
0.996846
0.992882
0.982082
0.940271
0.934031
0.936786
0.939338
0.932206
0.933447
0.936012
0.936004
0.942597
0.945733
0.947234
0.945534
0.928077
0.928012
0.923924
0.921535
0.920102
0.920617
0.920764
0.918591
0.921071
0.92875
0.92246
0.925556
0.934689
0.9378
0.931476
0.928618
0.930304
0.924686
0.92538
0.931869
0.925192
0.933158
0.942479
0.928954
0.929775
0.936583
0.946841
0.946086
0.939813
0.941148
0.942979
0.940824
0.942043
0.937715
0.948041
0.946684
0.94846
0.952919
0.93377
0.93236
0.927404
0.922658
0.926933
0.921747
0.94088
0.944374
0.943827
0.936295
0.937452
0.938288
0.944497
0.945584
0.948494
0.950088
0.920509
0.919077
0.918984
0.917629
0.916932
0.91718
0.915468
0.91509
0.91688
0.917662
0.91858
0.920897
0.933611
0.92873
0.935
0.915123
0.920982
0.917916
0.92771
0.917793
0.918265
0.918143
0.923822
0.91652
0.918176
0.921503
0.938688
0.943267
0.938905
0.931954
0.946424
0.948152
0.954208
0.949944
0.954175
0.956381
0.951176
0.957221
0.959918
0.921673
0.919321
0.918146
0.922923
0.926108
0.95066
0.955062
0.947646
0.950891
0.95502
0.954551
0.957025
0.952961
0.953681
0.952247
0.952257
0.950777
0.956442
0.958142
0.957607
0.965699
0.972071
0.973225
0.985075
0.995069
0.983252
0.984964
0.991008
0.978085
0.967069
0.967415
0.973711
0.96688
0.96337
0.956689
0.958254
0.959586
0.95775
0.942347
0.948769
0.953401
0.954141
0.952899
0.954923
0.988576
0.969637
0.969331
0.996814
0.992247
0.994147
0.961308
0.971772
0.981544
0.983859
0.979064
0.951807
0.933776
0.938388
0.942074
0.939755
0.941075
0.938551
0.9469
0.959345
0.966397
0.987106
0.989942
0.988638
0.994183
1.00235
0.995681
0.996621
1.01819
1.01924
1.01588
1.01292
1.01529
1.02782
1.00793
1.02667
1.00071
1.00798
1.01184
1.00864
0.918232
0.919321
0.949762
0.955765
0.958152
0.949646
0.952355
0.951841
0.970641
0.966182
0.972538
0.973221
0.983779
0.977643
0.979799
0.987674
0.961157
0.956586
0.959645
0.954229
0.963196
0.970535
0.966802
0.973748
0.982138
0.980532
0.992382
0.987963
0.994625
0.989528
0.99227
0.992299
0.999028
0.919517
0.918197
0.921145
0.917973
0.917614
0.916458
0.916857
0.919001
0.917837
0.914606
0.915397
0.916949
0.918104
0.915735
0.916116
0.917448
0.91402
0.913169
0.915255
0.914546
0.911441
0.911515
0.913908
0.917901
0.918379
0.920874
0.911622
0.912976
0.912413
0.917955
0.913967
0.91299
0.916168
0.918825
0.91668
0.916122
0.972653
0.975743
0.981986
0.969604
0.975285
0.972752
0.97914
0.983892
0.987771
0.975667
0.981091
0.978923
0.968784
0.956204
0.960983
0.959653
0.959576
0.965663
0.965425
0.959668
0.955655
0.961228
0.965163
0.968249
0.970763
0.976501
0.970658
0.960778
0.965638
0.970043
0.969123
1.02225
1.00722
1.02421
1.00837
1.01911
1.02797
1.03298
1.02077
1.01793
1.00223
0.999918
0.995708
1.00083
0.997432
0.984522
0.9929
1.00159
1.00502
1.00668
1.0206
0.997337
1.02294
1.02243
0.99389
1.01034
1.01721
1.02161
1.00793
1.00014
1.00052
1.00834
1.02725
1.0157
1.03332
1.00745
1.00093
0.996093
1.006
1.00018
1.00717
0.986809
0.989862
0.989634
0.98716
0.985149
0.987663
0.994712
0.993994
0.936646
0.92977
0.93169
0.934156
0.935467
0.936367
0.936201
0.941949
0.945673
0.944839
0.927682
0.927999
0.924788
0.921388
0.919502
0.91931
0.919802
0.917561
0.919936
0.928274
0.922329
0.922841
0.92449
0.932459
0.935267
0.935735
0.930411
0.92772
0.929149
0.922005
0.923717
0.927658
0.923053
0.921524
0.933731
0.942473
0.940573
0.929065
0.928992
0.9353
0.94585
0.946184
0.944067
0.940003
0.939747
0.941876
0.941058
0.938528
0.93729
0.937445
0.947896
0.943615
0.946905
0.944121
0.949215
0.948893
0.936605
0.930912
0.927603
0.922681
0.921923
0.925091
0.922843
0.920933
0.942079
0.946649
0.936475
0.937845
0.935666
0.943342
0.946019
0.947364
0.947771
0.949505
0.947145
0.950937
0.916623
0.918126
0.915419
0.915565
0.915682
0.916326
0.915466
0.913633
0.911861
0.91413
0.914302
0.916423
0.917145
0.914331
0.916685
0.918451
0.931118
0.931735
0.915964
0.912899
0.916874
0.917154
0.91516
0.925158
0.912377
0.920362
0.915604
0.92192
0.918106
0.916102
0.917235
0.917803
0.919582
0.939301
0.93155
0.928132
0.940479
0.947605
0.927832
0.936535
0.952166
0.955014
0.959384
0.959516
0.948921
0.952052
0.956701
0.955801
0.95768
0.952957
0.955742
0.963394
0.970302
0.918645
0.918262
0.916291
0.91956
0.924479
0.923635
0.952945
0.946861
0.950873
0.952672
0.953217
0.955552
0.951973
0.95494
0.951931
0.952071
0.94795
0.949057
0.957292
0.961054
0.955327
0.95454
0.964548
0.96718
0.971225
0.973241
0.98755
0.988534
0.992934
0.996746
0.983121
0.983746
0.99106
0.987637
0.978947
0.967439
0.969982
0.961589
0.97045
0.974544
0.960523
0.963101
0.963768
0.954852
0.955039
0.952282
0.952379
0.942603
0.945055
0.949945
0.948094
0.949167
0.953151
0.969936
0.973683
1.00076
0.992839
0.999612
0.993981
0.961753
0.973845
0.985264
0.984493
0.982883
0.95468
0.933989
0.936051
0.939206
0.941734
0.939515
0.934717
0.93894
0.942232
0.934221
0.937639
0.946776
0.958628
0.988412
0.990556
0.992764
0.992881
1.00095
0.993423
0.995466
1.02676
1.02631
1.01745
1.01286
1.01447
1.01949
1.0146
1.03278
1.00863
1.03241
1.02551
1.00813
1.00869
1.01377
1.00927
0.956759
0.951111
0.952024
0.966194
0.975005
0.975373
0.985473
0.987702
0.978343
0.988503
0.988859
0.958128
0.961395
0.962904
0.954876
0.970376
0.969125
0.969458
0.977302
0.982048
0.982255
0.994096
0.997346
0.996982
0.998608
1.00021
0.916855
0.920906
0.918638
0.917256
0.913749
0.918656
0.915052
0.914283
0.916425
0.914123
0.913102
0.912689
0.91128
0.91033
0.913374
0.912553
0.916391
0.913675
0.910649
0.910409
0.912034
0.912268
0.914009
0.912513
0.917395
0.914488
0.920155
0.912588
0.911712
0.91301
0.911099
0.916009
0.913786
0.911085
0.911429
0.913079
0.974603
0.975006
0.980249
0.969322
0.971207
0.974687
0.9693
0.981048
0.987064
0.980086
0.957964
0.960285
0.957635
0.967459
0.96545
0.964928
0.967372
0.959417
0.962355
0.954817
0.958642
0.95994
0.963807
0.966063
0.966691
0.9724
0.96973
0.975066
0.979509
0.96694
0.969265
1.01688
1.02672
1.02204
1.00537
1.02471
1.02318
1.02797
1.02301
1.03796
1.03856
1.03852
1.02023
1.0248
1.01167
0.997133
0.999359
1.00553
1.0002
0.997381
0.982804
0.989698
0.99028
1.0038
1.00481
1.01843
1.0183
1.0279
1.00907
1.02077
1.02403
1.03149
1.00859
1.00926
1.01022
1.01376
1.0222
1.02514
1.01585
1.00852
1.00002
1.00614
1.01589
1.02928
1.04125
1.00557
1.00708
1.00235
1.01302
0.991716
0.986385
0.990106
0.987301
0.998109
0.994845
0.92902
0.930845
0.93393
0.935114
0.937125
0.943908
0.943902
0.924587
0.919904
0.917304
0.919008
0.917532
0.917655
0.91563
0.924654
0.921933
0.919719
0.923791
0.932612
0.936474
0.935816
0.927912
0.924475
0.924224
0.930623
0.921036
0.922533
0.926234
0.92227
0.920781
0.923713
0.931145
0.938704
0.92874
0.929314
0.934723
0.946186
0.945674
0.942935
0.942208
0.937638
0.941791
0.938827
0.937382
0.93661
0.936232
0.936586
0.947437
0.942863
0.943249
0.937555
0.946154
0.942915
0.947933
0.949062
0.929408
0.924904
0.92208
0.926224
0.920888
0.925967
0.920173
0.924514
0.918938
0.915612
0.94754
0.937553
0.937312
0.938179
0.943261
0.945844
0.95117
0.949232
0.947308
0.950242
0.946167
0.951596
0.914822
0.915612
0.912409
0.913616
0.916041
0.915709
0.915454
0.913486
0.912731
0.914871
0.913014
0.913243
0.909998
0.912014
0.912824
0.915059
0.914586
0.915072
0.912935
0.913371
0.915858
0.917193
0.93064
0.934953
0.912725
0.909901
0.912229
0.910489
0.916116
0.916119
0.928587
0.912696
0.912356
0.917206
0.920017
0.916062
0.917515
0.917773
0.914325
0.914022
0.915926
0.917504
0.917258
0.916589
0.947811
0.935868
0.934387
0.928505
0.94085
0.944891
0.942585
0.934215
0.932932
0.955408
0.960775
0.962036
0.962664
0.968212
0.951701
0.951256
0.954855
0.959437
0.956959
0.960851
0.958052
0.956839
0.953113
0.953526
0.958593
0.9617
0.963138
0.917659
0.916644
0.912586
0.914742
0.916843
0.9188
0.918923
0.925943
0.91804
0.920073
0.920861
0.948702
0.951992
0.955492
0.953123
0.952749
0.949957
0.950115
0.946935
0.948226
0.957679
0.953032
0.959773
0.954194
0.952287
0.951097
0.964056
0.968591
0.969489
0.987822
0.993261
0.989582
0.994538
1.01221
0.981879
0.982315
0.989883
0.989345
0.986153
0.975594
0.971753
0.975495
0.968662
0.963312
0.960041
0.957404
0.976291
0.971364
0.974318
0.992436
0.95552
0.96624
0.954858
0.960721
0.960843
0.955271
0.951047
0.949515
0.951629
0.951607
0.948749
0.938445
0.943763
0.944593
0.946987
0.949629
0.968672
0.957212
0.971499
1.00045
1.00513
1.00752
0.999368
0.993375
0.998017
0.973338
0.984937
0.998041
0.984601
0.98203
0.947878
0.934016
0.930773
0.93802
0.940265
0.934774
0.933361
0.943877
0.939312
0.938525
0.932724
0.934331
0.952953
0.932954
0.961202
0.99203
1.00468
1.00246
1.00089
0.997335
1.00626
1.02743
1.0306
1.02544
1.02535
1.01113
1.01601
1.02755
1.02067
1.0443
1.01207
1.03914
1.03451
1.02351
1.00749
1.0176
1.00966
0.952446
0.954587
0.967761
0.984443
0.974789
0.986559
0.985871
0.988173
0.984533
0.988731
0.989068
0.958404
0.96229
0.971122
0.972224
0.966726
0.970623
0.980496
0.975092
0.982635
0.982695
1.00021
0.998893
0.997817
1.00217
0.913524
0.919402
0.917329
0.913074
0.914666
0.912616
0.913552
0.909207
0.909276
0.910433
0.910838
0.912319
0.910247
0.912674
0.908865
0.910199
0.908205
0.911333
0.910823
0.909502
0.915112
0.916827
0.915561
0.912057
0.912231
0.909357
0.910057
0.912406
0.909994
0.911718
0.906899
0.908894
0.909583
0.977672
0.974883
0.974688
0.978418
0.980689
0.981655
0.969619
0.977764
0.983126
0.983089
0.962293
0.957484
0.965769
0.965498
0.958654
0.960874
0.953464
0.957173
0.958883
0.962697
0.964698
0.965625
0.968735
0.971635
0.970903
0.969905
0.97678
0.972108
1.01576
1.02093
1.02818
1.03632
1.02175
1.03037
1.00804
1.03485
1.02429
1.02683
1.03846
1.0516
1.05828
1.05403
1.01769
1.03721
1.03634
1.00836
0.99992
0.99609
1.00317
0.996258
1.00728
1.00453
0.994121
0.992178
1.00364
0.988853
0.989445
1.00393
1.01475
1.00514
1.0209
1.01485
1.02631
1.03244
1.00872
1.0193
1.02144
1.02434
1.04871
1.00761
1.01237
1.01567
1.01502
1.01044
1.01481
1.01741
1.03629
1.01952
1.03905
1.01541
1.0081
1.00755
1.01254
1.00552
1.00464
1.04004
1.04352
1.04704
1.00738
1.01236
1.00591
0.991175
0.988812
0.99832
0.995792
0.93274
0.943119
0.922591
0.917655
0.921143
0.917972
0.924019
0.923731
0.923085
0.918408
0.919103
0.919918
0.930294
0.933771
0.931312
0.930048
0.922953
0.923998
0.929425
0.929798
0.918641
0.919372
0.923832
0.920162
0.917379
0.919483
0.921199
0.927113
0.926809
0.929199
0.928403
0.933935
0.936633
0.944029
0.944416
0.941795
0.936983
0.938531
0.936835
0.936711
0.935571
0.935419
0.935642
0.937916
0.947963
0.94179
0.94227
0.942552
0.93728
0.947095
0.945827
0.942354
0.942936
0.948616
0.931323
0.918863
0.92659
0.920772
0.926048
0.917959
0.920382
0.926654
0.915494
0.919257
0.935255
0.938763
0.940226
0.935513
0.943188
0.945328
0.946741
0.951222
0.944355
0.946088
0.954844
0.911466
0.912737
0.911788
0.911849
0.912106
0.912609
0.910311
0.912461
0.910648
0.911987
0.910368
0.909228
0.909668
0.912448
0.912133
0.913116
0.913379
0.912044
0.911381
0.910986
0.913256
0.914026
0.917623
0.93434
0.935414
0.907699
0.906158
0.908696
0.911583
0.909994
0.913592
0.914161
0.913981
0.925787
0.929811
0.909681
0.912313
0.911575
0.91162
0.913671
0.918296
0.91241
0.914503
0.918149
0.914948
0.91419
0.912631
0.913485
0.9137
0.916167
0.916174
0.917373
0.914459
0.914411
0.946174
0.944321
0.931579
0.936623
0.934011
0.93198
0.929228
0.937727
0.946914
0.941547
0.942748
0.94863
0.93296
0.930118
0.932732
0.961487
0.962511
0.964886
0.964195
0.970928
0.966603
0.968652
0.970735
0.954638
0.951743
0.948762
0.954292
0.960477
0.959073
0.964416
0.95704
0.958298
0.960694