/*--------------------------------*- C++ -*----------------------------------*\
| =========                 |                                                 |
| \\      /  F ield         | OpenFOAM: The Open Source CFD Toolbox           |
|  \\    /   O peration     | Version:  v2006                                 |
|   \\  /    A nd           | Website:  www.openfoam.com                      |
|    \\/     M anipulation  |                                                 |
\*---------------------------------------------------------------------------*/
FoamFile
{
    version     2.0;
    format      ascii;
    class       volScalarField;
    location    "14.8";
    object      rho;
}
// * * * * * * * * * * * * * * * * * * * * * * * * * * * * * * * * * * * * * //

dimensions      [1 -3 0 0 0 0 0];


internalField   nonuniform List<scalar> 
341797
(
0.960167
0.960242
0.961794
0.958609
0.960615
0.9611
0.961753
0.963032
0.958414
0.958829
0.961159
0.961486
0.962044
0.96185
0.963438
0.964534
0.96013
0.958307
0.957443
0.958282
0.961041
0.962593
0.961786
0.965234
0.96203
0.963656
0.963507
0.964724
0.965355
0.960001
0.957403
0.957904
0.957073
0.958615
0.961676
0.960667
0.964319
0.96259
0.965259
0.96149
0.964945
0.963667
0.964657
0.964819
0.968161
0.958737
0.959793
0.957437
0.955047
0.958183
0.954909
0.956656
0.957879
0.962656
0.958264
0.961041
0.965458
0.962862
0.963743
0.967721
0.966168
0.961934
0.958927
0.96435
0.963557
0.965051
0.964538
0.964561
0.967378
0.968316
0.968735
0.958336
0.959627
0.9615
0.957205
0.954016
0.953671
0.957223
0.954916
0.956651
0.965327
0.962757
0.957301
0.958155
0.959311
0.968561
0.962737
0.965933
0.963999
0.968664
0.968133
0.960971
0.962099
0.958511
0.966499
0.965036
0.966171
0.966479
0.96667
0.968148
0.969526
0.9703
0.958111
0.957789
0.960753
0.96165
0.954347
0.952883
0.953805
0.952986
0.95352
0.9576
0.9534
0.954146
0.965703
0.964218
0.960608
0.955734
0.956222
0.958115
0.968393
0.964084
0.96286
0.967308
0.964318
0.969274
0.969217
0.969465
0.961894
0.959377
0.964441
0.960462
0.957761
0.967122
0.965247
0.966147
0.966338
0.967823
0.966892
0.967716
0.971144
0.968461
0.971903
0.972075
0.95804
0.95769
0.960726
0.961194
0.953998
0.952777
0.952835
0.954739
0.951429
0.952957
0.957183
0.953957
0.965984
0.964834
0.959333
0.958143
0.956078
0.954357
0.970435
0.963938
0.964532
0.963891
0.968658
0.968589
0.9686
0.965637
0.971403
0.970265
0.969917
0.961181
0.959359
0.964165
0.961358
0.958012
0.966732
0.964736
0.966476
0.966034
0.967602
0.96836
0.968598
0.971709
0.971983
0.967797
0.972716
0.972273
0.973683
0.955778
0.957833
0.959406
0.960298
0.962785
0.953443
0.953159
0.951263
0.953918
0.950974
0.951305
0.953526
0.955368
0.954305
0.966245
0.968972
0.964089
0.96458
0.95597
0.960209
0.955587
0.95501
0.95411
0.964042
0.964842
0.967525
0.962779
0.969546
0.967257
0.970729
0.964465
0.971761
0.971527
0.971289
0.970486
0.972747
0.96156
0.960406
0.959063
0.960011
0.955589
0.964939
0.967648
0.966059
0.967323
0.967781
0.969206
0.968351
0.970682
0.970721
0.972781
0.973236
0.969725
0.974291
0.976064
0.973723
0.974238
0.955796
0.953915
0.958836
0.959419
0.961388
0.962828
0.951741
0.952683
0.950536
0.94992
0.951855
0.953302
0.949976
0.950882
0.951404
0.953939
0.953713
0.954521
0.964796
0.968735
0.96953
0.961424
0.961075
0.967751
0.954778
0.955962
0.959044
0.955068
0.954123
0.965897
0.966661
0.962345
0.967963
0.962448
0.970092
0.968133
0.970738
0.964671
0.972889
0.972416
0.97265
0.971594
0.972998
0.97176
0.95965
0.959173
0.957569
0.956054
0.957077
0.954559
0.964862
0.967402
0.966327
0.967342
0.967646
0.969247
0.970555
0.970596
0.972346
0.975208
0.972226
0.972698
0.969123
0.976373
0.975601
0.979107
0.976347
0.974286
0.976166
0.95534
0.954002
0.95888
0.959271
0.961214
0.962347
0.951372
0.951689
0.950689
0.94947
0.949982
0.95177
0.952801
0.947843
0.949553
0.951691
0.949879
0.952522
0.952419
0.964248
0.968414
0.969404
0.971082
0.96159
0.960911
0.961913
0.967642
0.955258
0.957201
0.955193
0.953101
0.965546
0.966863
0.962166
0.9682
0.968635
0.970375
0.963322
0.973864
0.972973
0.973817
0.973596
0.971175
0.97166
0.960131
0.956863
0.956433
0.964015
0.957424
0.957572
0.952885
0.958611
0.953285
0.966367
0.967756
0.969958
0.969816
0.965512
0.967222
0.967302
0.969138
0.970086
0.972353
0.970879
0.97281
0.97516
0.973092
0.973863
0.975583
0.978726
0.979028
0.981695
0.979717
0.978736
0.978141
0.957067
0.954815
0.952052
0.95893
0.960886
0.960846
0.963849
0.951223
0.951039
0.950342
0.950183
0.946657
0.94767
0.951519
0.946878
0.94753
0.948623
0.950177
0.951123
0.952705
0.953427
0.963765
0.9688
0.969459
0.972517
0.961162
0.961958
0.961199
0.970275
0.950555
0.956972
0.951995
0.950307
0.965272
0.966609
0.961181
0.968743
0.969545
0.971566
0.962473
0.973638
0.97721
0.975062
0.977953
0.979974
0.971637
0.97099
0.971444
0.961054
0.957655
0.954644
0.958339
0.964283
0.9623
0.95579
0.957548
0.956389
0.951207
0.952937
0.952752
0.965053
0.968922
0.972317
0.965445
0.96639
0.968276
0.969401
0.970832
0.972225
0.973798
0.972642
0.974954
0.978419
0.974558
0.974179
0.979705
0.979503
0.981243
0.981859
0.98227
0.980793
0.979192
0.978509
0.956482
0.952824
0.951588
0.960185
0.96052
0.962427
0.964166
0.949572
0.950933
0.94799
0.95036
0.946443
0.945644
0.9476
0.947137
0.950704
0.9452
0.946669
0.947469
0.951342
0.947865
0.952498
0.966155
0.970638
0.971196
0.974181
0.961168
0.961577
0.961353
0.966237
0.972673
0.950608
0.956832
0.949247
0.952456
0.948734
0.949042
0.9659
0.964183
0.966759
0.969687
0.96871
0.971638
0.961612
0.976253
0.97927
0.977634
0.980416
0.979134
0.975363
0.970979
0.974566
0.974196
0.960415
0.954877
0.959805
0.953886
0.952179
0.963235
0.963144
0.956032
0.959331
0.957897
0.953823
0.952491
0.955012
0.95139
0.96189
0.965447
0.968959
0.970324
0.96579
0.966925
0.968255
0.969286
0.9709
0.972198
0.973802
0.975041
0.974104
0.976502
0.978485
0.979668
0.982896
0.982166
0.980706
0.982575
0.983891
0.982631
0.980898
0.980072
0.978337
0.979486
0.956548
0.952035
0.95181
0.960066
0.960495
0.962463
0.963413
0.947732
0.949121
0.950174
0.947993
0.945345
0.94632
0.945706
0.947693
0.946436
0.944675
0.945835
0.945802
0.94816
0.949769
0.965771
0.971888
0.971717
0.97679
0.961086
0.962701
0.962846
0.96902
0.974659
0.948414
0.948176
0.949594
0.953281
0.947259
0.949224
0.948747
0.965693
0.963306
0.967829
0.969665
0.968939
0.973417
0.96233
0.979562
0.980167
0.981172
0.980499
0.982648
0.980181
0.981562
0.975427
0.97276
0.974226
0.97696
0.973988
0.975928
0.952859
0.955048
0.958041
0.959166
0.952527
0.951445
0.951955
0.963872
0.959338
0.964317
0.954269
0.956655
0.957986
0.957442
0.953568
0.954191
0.953402
0.950163
0.953071
0.94973
0.951336
0.96285
0.964527
0.966872
0.969586
0.975769
0.964489
0.966294
0.968379
0.969081
0.971676
0.974223
0.973371
0.976966
0.976711
0.98072
0.982781
0.984425
0.985412
0.980848
0.983244
0.985929
0.986995
0.983125
0.985652
0.984397
0.980092
0.978611
0.958301
0.950556
0.96004
0.96098
0.96253
0.964435
0.947408
0.948943
0.949089
0.94664
0.946055
0.946369
0.944897
0.94666
0.947168
0.946287
0.946716
0.944895
0.944784
0.946316
0.947402
0.947373
0.949315
0.966178
0.971702
0.974525
0.980163
0.978268
0.95864
0.962186
0.963474
0.960975
0.967956
0.969503
0.973961
0.949229
0.94915
0.950819
0.946178
0.947522
0.945812
0.94798
0.965858
0.966204
0.966716
0.971565
0.970777
0.978238
0.972366
0.960603
0.981088
0.979946
0.982003
0.98127
0.984294
0.979887
0.985632
0.980866
0.973855
0.977428
0.973855
0.97254
0.976443
0.975759
0.952842
0.954037
0.952286
0.956907
0.958238
0.951699
0.949296
0.951821
0.954755
0.9646
0.958561
0.954061
0.961592
0.954096
0.957366
0.953954
0.951371
0.954709
0.953211
0.948111
0.955269
0.947498
0.945166
0.947443
0.955211
0.961895
0.962738
0.965299
0.969926
0.971445
0.97245
0.964835
0.967413
0.967869
0.969786
0.970798
0.973846
0.976976
0.977685
0.976541
0.978381
0.97623
0.984271
0.980371
0.985774
0.986661
0.98587
0.985738
0.983484
0.983945
0.984462
0.990113
0.989154
0.988476
0.988202
0.986412
0.985471
0.985223
0.97892
0.958266
0.950022
0.961318
0.963046
0.964895
0.945324
0.946185
0.946893
0.948235
0.946164
0.943829
0.945505
0.943614
0.946645
0.945036
0.946709
0.943579
0.944762
0.944802
0.946388
0.948086
0.967426
0.970242
0.973114
0.973951
0.980006
0.959065
0.962564
0.962911
0.961649
0.963288
0.967628
0.973019
0.969524
0.973819
0.980136
0.946704
0.946625
0.950854
0.945061
0.94463
0.946778
0.943633
0.944627
0.944249
0.967168
0.964284
0.968672
0.972179
0.969708
0.976355
0.977551
0.970812
0.969251
0.96061
0.980155
0.991214
0.979858
0.983
0.98177
0.979825
0.981285
0.991389
0.983727
0.981541
0.983827
0.989312
0.978404
0.984516
0.97244
0.975414
0.977868
0.97321
0.975387
0.978656
0.975526
0.976658
0.950939
0.95394
0.956085
0.950732
0.950971
0.956987
0.959308
0.950553
0.947172
0.946435
0.951815
0.955196
0.958097
0.96237
0.954344
0.957945
0.960991
0.954207
0.955511
0.957228
0.954384
0.950979
0.955304
0.955049
0.949189
0.948127
0.955109
0.957299
0.943729
0.946355
0.945426
0.947346
0.947892
0.96111
0.95346
0.962482
0.962817
0.96649
0.969587
0.98076
0.97084
0.970681
0.9767
0.962808
0.966378
0.967029
0.96799
0.969695
0.970994
0.979765
0.97904
0.978827
0.978763
0.985547
0.982877
0.985965
0.991207
0.989322
0.990974
0.982836
0.984243
0.991789
0.994127
0.990107
0.991634
0.988869
0.987752
0.987026
0.982047
0.958027
0.94876
0.960819
0.963144
0.964256
0.944618
0.945615
0.946221
0.946844
0.945666
0.94284
0.944053
0.942503
0.945366
0.943407
0.945476
0.941355
0.943946
0.94405
0.944104
0.946987
0.945914
0.966846
0.969559
0.972222
0.976418
0.979277
0.960093
0.963711
0.962729
0.960347
0.969154
0.963049
0.969486
0.973743
0.975854
0.97076
0.974
0.976742
0.98252
0.981457
0.983384
0.945475
0.946315
0.946925
0.94432
0.950865
0.943825
0.943629
0.942396
0.942097
0.94321
0.945023
0.942196
0.943313
0.942001
0.9426
0.942781
0.96691
0.963954
0.967969
0.975822
0.969528
0.96904
0.978043
0.976763
0.976502
0.966938
0.970631
0.967565
0.969914
0.959178
0.960697
0.991809
0.991616
0.989634
0.983086
0.984631
0.984583
0.98467
0.982077
0.993545
0.984751
0.994406
0.98053
0.981842
0.989569
0.980455
0.989046
0.974452
0.976963
0.98039
0.975401
0.97709
0.976265
0.9508
0.949556
0.955187
0.956074
0.950517
0.951264
0.958599
0.955883
0.956926
0.957862
0.947684
0.94465
0.943462
0.947346
0.953998
0.949637
0.95933
0.952586
0.955625
0.961906
0.950928
0.959529
0.956535
0.960922
0.955066
0.953004
0.95487
0.949714
0.956927
0.950838
0.947998
0.945988
0.956729
0.955813
0.960374
0.942159
0.942694
0.944582
0.94304
0.946419
0.945043
0.94716
0.946731
0.94832
0.961127
0.951814
0.961313
0.962715
0.960188
0.964475
0.965544
0.968628
0.977507
0.982217
0.975184
0.968187
0.972569
0.970282
0.976111
0.959793
0.964604
0.967499
0.969128
0.970477
0.980063
0.980305
0.982188
0.982292
0.987358
0.984501
0.982644
0.989924
0.997418
0.995882
0.996574
0.983392
0.989917
0.995836
0.995884
0.996988
0.992302
0.995886
0.989249
0.992975
0.985648
0.986146
0.94716
0.961973
0.96311
0.965489
0.94348
0.945156
0.944275
0.946673
0.942495
0.941949
0.945445
0.942852
0.943002
0.941692
0.941303
0.94373
0.943252
0.947029
0.945044
0.966753
0.968659
0.97173
0.982811
0.963176
0.962806
0.960862
0.966823
0.962738
0.967016
0.974351
0.975424
0.971492
0.9754
0.982137
0.975736
0.984765
0.982904
0.9847
0.985287
0.985637
0.94294
0.943738
0.946871
0.944644
0.942776
0.942955
0.94151
0.938795
0.939422
0.942343
0.943087
0.942144
0.94181
0.94191
0.941388
0.941944
0.94044
0.940827
0.966703
0.96589
0.974929
0.972024
0.968651
0.980731
0.976569
0.977045
0.976711
0.976427
0.966612
0.969928
0.965096
0.966686
0.968297
0.974457
0.958668
0.994595
0.991414
0.993531
0.99033
0.989227
0.983778
0.984422
0.992355
0.986624
0.993614
0.985888
1.00208
0.992078
0.991546
0.998019
0.991702
0.980603
0.982107
0.98727
0.99142
0.981552
0.985551
0.989747
0.975401
0.974363
0.97703
0.97861
0.980467
0.978616
0.978355
0.950829
0.949133
0.954928
0.951688
0.948373
0.950159
0.957833
0.955221
0.956443
0.959458
0.946492
0.945691
0.942104
0.941995
0.944539
0.950618
0.947154
0.949403
0.959461
0.951557
0.953908
0.962771
0.950263
0.951488
0.959089
0.955571
0.955427
0.960302
0.954918
0.952561
0.955737
0.953196
0.95028
0.946626
0.951017
0.950042
0.949094
0.946011
0.946303
0.958252
0.952262
0.958279
0.961444
0.941256
0.940254
0.940871
0.941528
0.94418
0.939395
0.942391
0.941438
0.947425
0.943785
0.947046
0.942714
0.943122
0.953696
0.96402
0.951507
0.961453
0.96209
0.96194
0.964539
0.959561
0.963552
0.963891
0.967179
0.968694
0.977853
0.982424
0.982611
0.971939
0.966038
0.96925
0.974688
0.971847
0.971265
0.985316
0.978386
0.959136
0.956712
0.960643
0.966358
0.965136
0.968677
0.970616
0.972157
0.982409
0.980565
0.984003
0.982335
0.991563
0.986503
0.98532
0.984806
0.991921
0.997896
0.997993
0.997904
0.998378
0.993111
1.00182
1.00278
1.00269
0.998393
0.997763
0.988349
0.998179
0.987251
0.946636
0.96454
0.965768
0.943195
0.942721
0.94458
0.941213
0.942196
0.941813
0.941523
0.94064
0.94172
0.940213
0.945689
0.944485
0.968262
0.962668
0.966769
0.962492
0.966764
0.962496
0.963576
0.966908
0.975377
0.974502
0.975915
0.981473
0.967547
0.972055
0.982652
0.980441
0.989165
0.98641
0.983562
0.988942
0.989034
0.993975
0.940712
0.942523
0.943003
0.945321
0.943285
0.942017
0.940764
0.939942
0.938597
0.93785
0.93817
0.937642
0.938145
0.938551
0.944281
0.940653
0.939607
0.940719
0.939616
0.939834
0.93986
0.939676
0.939363
0.96736
0.974257
0.971094
0.979091
0.976928
0.976551
0.983034
0.975499
0.978889
0.975925
0.965899
0.967606
0.96768
0.969861
0.976448
0.964122
0.964864
0.967563
0.970697
0.973956
0.974547
0.958467
0.997546
0.996331
0.993607
0.999426
0.988908
0.994837
0.991405
0.987665
0.983203
0.995148
0.997416
0.986096
0.998076
0.997678
0.989415
1.00585
0.999131
0.998744
0.98982
0.997762
0.998325
0.983024
0.983667
0.988962
0.99042
0.982457
0.986545
0.989766
0.974751
0.978023
0.98072
0.978764
0.983888
0.952146
0.949951
0.947247
0.954722
0.950706
0.950931
0.946432
0.948152
0.949619
0.956423
0.958082
0.955307
0.955465
0.958862
0.945595
0.943764
0.946067
0.942495
0.94144
0.942509
0.939419
0.945366
0.941828
0.950685
0.947297
0.948718
0.956381
0.948762
0.950798
0.953998
0.958719
0.948876
0.950119
0.95101
0.95957
0.957734
0.953346
0.955092
0.954512
0.955058
0.958048
0.964512
0.957227
0.953998
0.948399
0.950947
0.947567
0.946654
0.944345
0.957936
0.958938
0.952658
0.953845
0.959501
0.961339
0.94024
0.940787
0.93965
0.938133
0.939603
0.940128
0.94085
0.943394
0.937939
0.93895
0.938922
0.940652
0.946651
0.949216
0.940234
0.943809
0.948294
0.946011
0.93937
0.943135
0.956182
0.965322
0.964665
0.969941
0.94424
0.950384
0.959533
0.961601
0.962095
0.962894
0.958454
0.959262
0.963708
0.963182
0.963098
0.960557
0.965606
0.967723
0.969671
0.982068
0.988453
0.981643
0.975445
0.970827
0.971589
0.963931
0.96564
0.965504
0.983927
0.974579
0.973581
0.98894
0.976325
0.986314
0.961991
0.959411
0.955574
0.963524
0.96645
0.968879
0.97083
0.972552
0.982609
0.981757
0.985227
0.983697
0.993556
0.989254
0.988488
0.984992
0.998116
0.998319
0.999986
1.00423
0.999731
1.00391
1.00257
1.0004
0.997131
0.992642
1.00021
0.989875
0.964357
0.965082
0.94379
0.940827
0.940908
0.940918
0.939523
0.940951
0.965388
0.967265
0.962229
0.966703
0.963866
0.963644
0.963987
0.968775
0.975449
0.979448
0.975659
0.972723
0.979715
0.981119
0.983922
0.968574
0.968199
0.974645
0.978533
0.987713
0.993823
0.987091
0.988793
0.991327
0.99555
0.940759
0.940896
0.940849
0.942562
0.940988
0.938468
0.939864
0.938683
0.93833
0.937952
0.93879
0.936548
0.937169
0.936521
0.937443
0.935413
0.937976
0.935636
0.941588
0.944655
0.937631
0.937166
0.93936
0.939039
0.939311
0.938746
0.937192
0.967562
0.970965
0.978424
0.975481
0.977346
0.984048
0.976549
0.975257
0.978711
0.975239
0.965184
0.966573
0.96986
0.971784
0.967143
0.967327
0.973131
0.976208
0.975044
0.963394
0.964927
0.966063
0.968734
0.972904
0.972905
0.997374
1.00266
0.998161
1.00367
0.996107
0.991759
0.99522
0.995971
0.992537
0.994043
0.990118
0.996536
0.995976
1.00178
0.992656
1.0001
0.999599
0.997668
0.998155
0.988669
1.00917
0.999861
0.997585
0.999645
0.996516
0.996096
0.999332
0.983266
0.985299
0.988776
0.99149
0.98944
0.981866
0.987032
0.98578
0.992108
0.976445
0.980845
0.980201
0.983236
0.951912
0.947727
0.950172
0.946173
0.948637
0.950265
0.956474
0.953324
0.954903
0.956108
0.956085
0.944888
0.942982
0.94339
0.941779
0.942373
0.938231
0.940525
0.937619
0.937536
0.938722
0.943849
0.93922
0.941625
0.950321
0.952148
0.945916
0.944948
0.945471
0.949253
0.944817
0.950866
0.956553
0.956974
0.944067
0.948434
0.949037
0.957155
0.957094
0.952597
0.955406
0.953428
0.954234
0.955355
0.958382
0.96293
0.954377
0.949348
0.952089
0.949125
0.947933
0.947739
0.945329
0.944633
0.942261
0.955752
0.958475
0.959138
0.953823
0.954544
0.95966
0.96021
0.962721
0.938462
0.937607
0.938058
0.936826
0.936935
0.93763
0.935948
0.93718
0.937818
0.937757
0.938232
0.938504
0.948738
0.951962
0.939971
0.943897
0.951323
0.943629
0.941831
0.938808
0.939538
0.953565
0.953585
0.961878
0.966243
0.965454
0.965839
0.967776
0.969573
0.942082
0.93965
0.944698
0.959831
0.962733
0.963617
0.958566
0.958602
0.960966
0.962682
0.963304
0.962382
0.963056
0.961291
0.960037
0.964633
0.96812
0.972873
0.983913
0.98874
0.984694
0.986313
0.9807
0.974099
0.974518
0.970171
0.973803
0.967909
0.957629
0.962439
0.965023
0.963555
0.96697
0.989654
0.978357
0.992055
0.988735
0.96903
0.981768
0.986352
0.9848
0.966832
0.95747
0.956308
0.955275
0.952599
0.955609
0.952728
0.968668
0.968782
0.972018
0.987266
0.985346
0.988654
0.994699
0.988069
0.989203
0.990841
1.00043
1.00536
1.00834
1.0059
1.00028
1.00369
1.0057
1.0103
1.00978
0.997705
1.0002
0.991487
1.00121
1.00076
0.965459
0.937394
0.939833
0.938254
0.966682
0.962906
0.966629
0.967477
0.963945
0.964694
0.977975
0.980092
0.977541
0.973939
0.979431
0.980613
0.981194
0.982838
0.989972
0.968812
0.969403
0.966368
0.972455
0.976062
0.981104
0.986282
0.992973
0.986712
0.991709
0.991015
0.993292
0.998533
0.939359
0.937705
0.943654
0.939283
0.93775
0.936957
0.937574
0.936383
0.936712
0.938385
0.937772
0.934929
0.936485
0.935978
0.93565
0.935688
0.933309
0.93654
0.933143
0.934881
0.938821
0.940533
0.934033
0.937038
0.934879
0.936024
0.936784
0.93716
0.936747
0.935559
0.975924
0.983773
0.974684
0.976007
0.981649
0.988485
0.975937
0.974238
0.98091
0.974184
0.963834
0.966278
0.966777
0.968888
0.970987
0.967848
0.96451
0.968047
0.971459
0.975782
0.974062
0.963186
0.963377
0.965552
0.971276
0.968756
0.972588
0.973455
1.00221
0.998384
1.00196
1.00992
1.01126
1.00941
0.998703
0.996299
0.992649
0.99449
0.99656
0.994126
0.988773
0.998403
1.00517
0.99995
0.998716
1.00604
0.994434
1.00181
1.00388
1.00465
1.00004
0.99924
0.998974
0.99897
0.995279
1.01037
1.00703
1.01211
1.00006
0.997412
0.997229
1.00053
1.00073
0.984659
0.987506
0.989421
0.985783
0.985386
0.989247
0.994216
0.991092
0.983145
0.951793
0.94721
0.949253
0.951126
0.94592
0.946772
0.948646
0.949071
0.953489
0.955927
0.956794
0.955805
0.942758
0.942885
0.93959
0.938011
0.937127
0.937489
0.937623
0.936327
0.93844
0.944035
0.939007
0.941864
0.948518
0.951451
0.948289
0.944989
0.945368
0.94267
0.942552
0.948342
0.94332
0.950139
0.955423
0.943475
0.944213
0.94976
0.957158
0.956705
0.951602
0.952861
0.954115
0.952392
0.953435
0.950912
0.958813
0.957346
0.958882
0.963306
0.951295
0.950314
0.946257
0.942433
0.946061
0.941945
0.956921
0.959546
0.959025
0.953326
0.954407
0.954652
0.959388
0.960547
0.962735
0.963749
0.937505
0.936855
0.93667
0.935738
0.93563
0.935396
0.934493
0.934201
0.935942
0.936193
0.936499
0.938318
0.951255
0.947847
0.95228
0.935157
0.941008
0.937557
0.947215
0.938261
0.937995
0.938342
0.943416
0.935791
0.936639
0.940151
0.955613
0.958529
0.955884
0.950607
0.961094
0.962023
0.966611
0.963391
0.967112
0.968224
0.964402
0.969069
0.970616
0.94103
0.939625
0.938272
0.942848
0.944204
0.959404
0.96265
0.957135
0.959856
0.962696
0.962306
0.964531
0.961044
0.962153
0.960749
0.960837
0.959645
0.964333
0.965902
0.966343
0.971221
0.976948
0.977495
0.987612
0.994344
0.984335
0.985912
0.990491
0.981153
0.973603
0.974419
0.979771
0.974898
0.970339
0.965617
0.967569
0.969799
0.968057
0.956179
0.960173
0.963792
0.965462
0.964706
0.966624
0.990307
0.977096
0.976984
0.99699
0.993697
0.995268
0.971984
0.978845
0.986175
0.987635
0.984491
0.964592
0.95073
0.953693
0.957429
0.954219
0.955094
0.953034
0.96095
0.970151
0.971286
0.986994
0.989117
0.988185
0.992049
0.997874
0.993082
0.99377
1.01035
1.01125
1.00815
1.00825
1.00924
1.01715
1.00234
1.01586
0.997077
1.00228
1.0047
1.00238
0.936431
0.937255
0.963586
0.967645
0.969143
0.963385
0.96564
0.965025
0.978636
0.975061
0.980043
0.980335
0.988586
0.983372
0.985113
0.990546
0.971869
0.968337
0.970637
0.966455
0.973389
0.977924
0.975944
0.980813
0.98708
0.985715
0.994026
0.9907
0.995832
0.991942
0.993984
0.993965
0.998784
0.937241
0.936837
0.940175
0.937624
0.936872
0.935067
0.935589
0.936974
0.936387
0.933748
0.934356
0.935506
0.936451
0.934633
0.934911
0.935934
0.933254
0.932585
0.934504
0.934718
0.931205
0.931362
0.93394
0.936477
0.937924
0.940362
0.932181
0.93347
0.932269
0.936444
0.933438
0.933382
0.934908
0.936518
0.935356
0.934728
0.975959
0.978319
0.983108
0.97399
0.977878
0.976087
0.98101
0.984553
0.987277
0.978252
0.982355
0.980816
0.973162
0.963544
0.967112
0.966121
0.966203
0.970702
0.970718
0.966407
0.963816
0.967505
0.97049
0.973083
0.974708
0.97962
0.974724
0.966848
0.97073
0.973896
0.973233
1.01228
1.00177
1.01425
1.00262
1.01082
1.01759
1.02061
1.01368
1.01147
0.99832
0.996256
0.993916
0.996948
0.9943
0.985113
0.990947
0.997641
1.00012
1.0035
1.01244
0.995383
1.01384
1.01475
0.993907
1.0068
1.0111
1.01416
1.00487
0.999561
0.999808
1.00511
1.01763
1.01004
1.02154
1.00461
1.00021
0.99663
1.00362
0.999357
1.00438
0.986686
0.988893
0.988772
0.986969
0.985457
0.987282
0.992521
0.991773
0.94913
0.943975
0.945528
0.947173
0.948389
0.948889
0.949285
0.953026
0.955712
0.955092
0.942399
0.94263
0.940207
0.937903
0.93661
0.936573
0.93701
0.935412
0.937464
0.943376
0.938789
0.939312
0.940606
0.946822
0.948631
0.949324
0.947271
0.943976
0.944478
0.940057
0.94116
0.944893
0.941896
0.939854
0.95047
0.955589
0.953931
0.943546
0.94378
0.948709
0.956013
0.956703
0.954858
0.951692
0.951526
0.953171
0.95233
0.95092
0.950385
0.950751
0.95919
0.954961
0.957219
0.955015
0.959171
0.9599
0.953491
0.949286
0.946463
0.942352
0.942381
0.944621
0.942666
0.941171
0.95784
0.961232
0.953482
0.95455
0.953056
0.958688
0.960842
0.961851
0.961948
0.963449
0.961579
0.964355
0.93484
0.935953
0.933714
0.934264
0.934125
0.934919
0.934075
0.932741
0.931814
0.93406
0.933457
0.935284
0.935831
0.933434
0.935092
0.936617
0.949764
0.950069
0.935779
0.933533
0.938344
0.937208
0.935747
0.944894
0.933173
0.940358
0.935415
0.941465
0.939201
0.935187
0.935689
0.936236
0.938155
0.955914
0.94953
0.947225
0.957021
0.961799
0.946871
0.953066
0.964479
0.966976
0.970596
0.970086
0.962702
0.964772
0.968763
0.968366
0.969354
0.96574
0.967782
0.973535
0.978095
0.938249
0.938088
0.936283
0.9397
0.942939
0.942244
0.960914
0.956552
0.959612
0.960891
0.961328
0.963274
0.960366
0.963192
0.960391
0.960538
0.957913
0.958189
0.964743
0.967696
0.963671
0.963574
0.969937
0.972068
0.97639
0.977972
0.989859
0.9903
0.992447
0.9953
0.984196
0.984371
0.990341
0.988024
0.981976
0.973824
0.975562
0.970301
0.97676
0.979709
0.970523
0.969738
0.970715
0.963754
0.965057
0.963361
0.963732
0.955018
0.956988
0.960498
0.96054
0.961758
0.965589
0.977408
0.980533
0.999957
0.994728
0.999098
0.995215
0.972124
0.980537
0.989069
0.988235
0.987182
0.967022
0.950059
0.953415
0.954831
0.956678
0.953516
0.950837
0.953245
0.956958
0.94983
0.952085
0.960988
0.96962
0.98797
0.989564
0.991057
0.991105
0.99675
0.99148
0.992915
1.01656
1.01576
1.00877
1.00828
1.00929
1.01238
1.0091
1.021
1.0027
1.02022
1.01507
1.00225
1.00251
1.00616
1.00281
0.96846
0.964771
0.9652
0.975296
0.981688
0.981917
0.989354
0.990775
0.984039
0.991299
0.991407
0.969825
0.97202
0.972835
0.967461
0.979013
0.977574
0.977697
0.983389
0.986939
0.987015
0.995424
0.997525
0.997183
0.998319
0.999332
0.936075
0.940284
0.938011
0.936361
0.933072
0.936883
0.93411
0.933528
0.935128
0.933275
0.932532
0.932268
0.930932
0.930195
0.932676
0.932509
0.935515
0.933372
0.930587
0.930384
0.931596
0.932042
0.934639
0.933954
0.937357
0.935699
0.939813
0.932666
0.931983
0.933378
0.930844
0.934628
0.933238
0.931014
0.93154
0.932367
0.977392
0.977829
0.981475
0.973509
0.975106
0.977555
0.973587
0.982384
0.986572
0.981665
0.964768
0.966624
0.964579
0.972025
0.970427
0.970138
0.972097
0.965944
0.968118
0.962661
0.965672
0.966319
0.969348
0.971225
0.971801
0.975644
0.973785
0.978296
0.98128
0.97179
0.973482
1.00826
1.01567
1.01213
1.00018
1.01443
1.013
1.0168
1.01332
1.02425
1.02423
1.02568
1.0131
1.0163
1.0048
0.994045
0.99584
1.00011
0.996141
0.99401
0.984018
0.988467
0.989208
0.999032
0.999669
1.01228
1.01115
1.01808
1.00332
1.01179
1.01509
1.02076
1.00477
1.00591
1.00676
1.00891
1.01481
1.01668
1.01022
1.00542
0.999607
1.00391
1.01045
1.01906
1.02707
1.00351
1.00442
1.0012
1.00858
0.990366
0.986364
0.988981
0.986748
0.994901
0.992412
0.943443
0.944838
0.946984
0.948283
0.949316
0.954352
0.954431
0.940109
0.936792
0.934978
0.936432
0.935222
0.935469
0.933933
0.940384
0.93847
0.937431
0.940192
0.946508
0.949488
0.949626
0.944391
0.941301
0.94018
0.945169
0.938803
0.939535
0.943362
0.940892
0.938746
0.94115
0.947745
0.951893
0.943219
0.943729
0.947981
0.956105
0.955868
0.953843
0.953509
0.949963
0.952835
0.950663
0.949794
0.949741
0.949484
0.950074
0.958152
0.954248
0.954605
0.950851
0.956282
0.953889
0.957971
0.959853
0.948494
0.944494
0.941536
0.945577
0.941434
0.945537
0.940361
0.944456
0.939249
0.936582
0.96199
0.954539
0.954355
0.95545
0.958691
0.960529
0.964718
0.963361
0.96167
0.963981
0.96065
0.964926
0.933414
0.933838
0.931696
0.932618
0.934237
0.934126
0.934006
0.932534
0.931861
0.93359
0.932026
0.932532
0.929967
0.932236
0.932305
0.934222
0.933756
0.934023
0.932067
0.932812
0.934033
0.935142
0.949442
0.952832
0.932894
0.931249
0.932842
0.931988
0.936748
0.93635
0.947538
0.933343
0.9331
0.937624
0.9405
0.935838
0.938291
0.938708
0.93349
0.933083
0.934502
0.935926
0.935844
0.936023
0.961409
0.952873
0.95265
0.947161
0.956975
0.959915
0.957906
0.952022
0.950512
0.967302
0.971557
0.972404
0.9723
0.976852
0.964837
0.964314
0.9675
0.970799
0.969067
0.971233
0.969494
0.968685
0.96591
0.966328
0.970102
0.972177
0.973297
0.937768
0.936798
0.933856
0.935095
0.936553
0.938416
0.93916
0.943712
0.938154
0.939087
0.939766
0.957909
0.960445
0.963113
0.961446
0.961099
0.958992
0.959006
0.956872
0.95755
0.964858
0.961555
0.966619
0.962571
0.961063
0.960973
0.969753
0.972881
0.97408
0.98857
0.993341
0.989811
0.993915
1.00694
0.983052
0.982785
0.988784
0.988791
0.986425
0.978935
0.976965
0.979512
0.973283
0.971389
0.969182
0.967777
0.98054
0.977193
0.979611
0.992595
0.967164
0.971543
0.963514
0.968402
0.968795
0.963879
0.961585
0.960841
0.962875
0.963093
0.961046
0.951952
0.955844
0.95661
0.959319
0.962409
0.9766
0.968379
0.979044
0.99955
1.00293
1.00473
0.998861
0.994774
0.99808
0.980289
0.988949
0.997986
0.988414
0.986657
0.961841
0.950237
0.949272
0.953523
0.955986
0.950027
0.949446
0.956706
0.953356
0.953854
0.948713
0.94919
0.96528
0.950887
0.971583
0.990582
0.999476
0.997887
0.996768
0.994255
1.00055
1.0175
1.01869
1.01507
1.01456
1.00746
1.01053
1.01816
1.01344
1.02887
1.005
1.02495
1.02076
1.01379
1.00159
1.00868
1.00315
0.965704
0.967009
0.976734
0.988377
0.981505
0.989997
0.989796
0.991195
0.98842
0.991561
0.991781
0.970075
0.972667
0.979316
0.979808
0.975828
0.97868
0.985615
0.982133
0.987354
0.987486
0.999863
0.998815
0.998069
1.00104
0.933271
0.938939
0.936122
0.932763
0.933694
0.932086
0.932844
0.929362
0.92935
0.930445
0.931195
0.93211
0.930672
0.932721
0.929306
0.930178
0.928786
0.931654
0.931399
0.930621
0.936245
0.936761
0.936271
0.933795
0.932125
0.930198
0.930572
0.931623
0.930014
0.931312
0.927685
0.929272
0.929659
0.979592
0.977563
0.977459
0.980302
0.981825
0.982851
0.973804
0.979681
0.983762
0.983846
0.968011
0.964512
0.970783
0.970659
0.965348
0.96707
0.961557
0.964486
0.965609
0.968461
0.969914
0.970503
0.973184
0.975066
0.97451
0.973817
0.979338
0.975509
1.00722
1.01131
1.01673
1.02234
1.01155
1.0179
1.00182
1.02218
1.01344
1.01574
1.02414
1.03379
1.03834
1.03689
1.01145
1.02532
1.02461
1.00229
0.995969
0.993056
0.998773
0.993342
1.00109
0.999262
0.991722
0.990011
0.998405
0.987798
0.988175
0.998932
1.00666
0.999733
1.01406
1.00962
1.01716
1.02089
1.00323
1.01029
1.01215
1.01559
1.03278
1.00403
1.00841
1.01042
1.01004
1.00707
1.00976
1.01144
1.02485
1.01281
1.02673
1.01025
1.00526
1.00477
1.00824
1.0034
1.00301
1.02639
1.02913
1.03063
1.00464
1.00817
1.00348
0.989708
0.987875
0.995019
0.993154
0.946127
0.953761
0.938645
0.935208
0.937726
0.935527
0.939768
0.939973
0.939052
0.93606
0.936918
0.937232
0.944258
0.94736
0.945625
0.945752
0.939662
0.939788
0.943688
0.944423
0.936739
0.936945
0.941066
0.938868
0.936576
0.937656
0.938603
0.944538
0.941568
0.943465
0.9429
0.946993
0.949018
0.954475
0.954722
0.952982
0.949273
0.950348
0.949159
0.949004
0.948518
0.948599
0.948909
0.950894
0.958133
0.953241
0.953943
0.953924
0.950279
0.956845
0.955976
0.953252
0.953781
0.958899
0.9496
0.939082
0.946
0.941506
0.945764
0.93861
0.940736
0.946094
0.93651
0.939705
0.953241
0.955431
0.956731
0.953158
0.958891
0.960142
0.961429
0.964742
0.95947
0.96072
0.967248
0.931244
0.931724
0.93102
0.931089
0.93124
0.931734
0.930136
0.931428
0.930303
0.931044
0.930016
0.929678
0.929596
0.932016
0.93231
0.932348
0.932194
0.931194
0.930798
0.931228
0.931979
0.932441
0.93524
0.95248
0.952991
0.92866
0.927888
0.930355
0.931917
0.931207
0.934643
0.935275
0.934899
0.9453
0.948472
0.931187
0.933292
0.932065
0.932525
0.935133
0.939017
0.933248
0.933898
0.939165
0.936336
0.933402
0.931562
0.932248
0.932262
0.934722
0.9348
0.935783
0.933738
0.934571
0.960201
0.958883
0.949218
0.953526
0.951929
0.949682
0.947597
0.954822
0.961369
0.957368
0.958411
0.962299
0.950504
0.948805
0.950391
0.97212
0.972192
0.974654
0.973826
0.978822
0.975406
0.977311
0.978764
0.967171
0.964645
0.962927
0.966845
0.971591
0.970313
0.974173
0.968749
0.969725
0.971079