/*--------------------------------*- C++ -*----------------------------------*\
| =========                 |                                                 |
| \\      /  F ield         | OpenFOAM: The Open Source CFD Toolbox           |
|  \\    /   O peration     | Version:  v2006                                 |
|   \\  /    A nd           | Website:  www.openfoam.com                      |
|    \\/     M anipulation  |                                                 |
\*---------------------------------------------------------------------------*/
FoamFile
{
    version     2.0;
    format      ascii;
    class       volScalarField;
    location    "14.8";
    object      rhoMean;
}
// * * * * * * * * * * * * * * * * * * * * * * * * * * * * * * * * * * * * * //

dimensions      [1 -3 0 0 0 0 0];


internalField   nonuniform List<scalar> 
341797
(
0.959996
0.960113
0.961643
0.958522
0.960576
0.960993
0.961596
0.962801
0.958353
0.958747
0.961153
0.961342
0.961933
0.961693
0.963271
0.96435
0.959995
0.95827
0.957401
0.958222
0.960994
0.962491
0.961705
0.965196
0.961932
0.963533
0.963366
0.964561
0.965167
0.959967
0.957341
0.957898
0.957015
0.958597
0.961805
0.960671
0.964536
0.962541
0.965089
0.961581
0.964859
0.963535
0.964515
0.964683
0.968089
0.958734
0.959727
0.957415
0.955071
0.958179
0.954936
0.956732
0.957937
0.962858
0.958261
0.961206
0.965598
0.96281
0.963724
0.967653
0.966069
0.962006
0.958993
0.964385
0.963453
0.964872
0.964426
0.964419
0.967242
0.968178
0.968555
0.958334
0.959642
0.961485
0.957175
0.954117
0.95383
0.957318
0.955
0.956729
0.965359
0.962923
0.957415
0.958154
0.959431
0.968537
0.962718
0.965812
0.964035
0.968666
0.968132
0.961071
0.962318
0.958525
0.966593
0.965081
0.966066
0.966405
0.966507
0.967976
0.969424
0.970153
0.958185
0.95783
0.960833
0.961681
0.954329
0.952921
0.953959
0.953031
0.953659
0.957706
0.953478
0.954301
0.965806
0.964401
0.96084
0.955879
0.956341
0.958227
0.968492
0.964135
0.962905
0.96721
0.964373
0.969308
0.969288
0.969382
0.961991
0.95959
0.964614
0.960679
0.957917
0.967335
0.965265
0.966094
0.966251
0.967704
0.966779
0.967531
0.971008
0.968309
0.971819
0.971937
0.958014
0.957738
0.960822
0.961296
0.953974
0.952869
0.952945
0.954901
0.951515
0.953067
0.957395
0.954107
0.966181
0.965089
0.959459
0.95837
0.956267
0.954525
0.970519
0.964081
0.964622
0.964003
0.968572
0.96857
0.968547
0.96585
0.971385
0.970356
0.969887
0.961349
0.959623
0.964377
0.961619
0.958183
0.966946
0.96483
0.966561
0.965988
0.967505
0.968191
0.968539
0.97158
0.97185
0.967684
0.972636
0.972221
0.973511
0.955785
0.957861
0.959557
0.960434
0.962972
0.953486
0.953239
0.951346
0.954086
0.951078
0.951429
0.953687
0.955574
0.954426
0.966505
0.969199
0.964342
0.964837
0.95611
0.960312
0.955822
0.955055
0.954226
0.964208
0.964958
0.967465
0.962925
0.969534
0.967291
0.970777
0.964598
0.971766
0.971533
0.971352
0.970513
0.972641
0.961767
0.96074
0.959277
0.960212
0.955759
0.965343
0.967814
0.966239
0.967373
0.967812
0.96911
0.968151
0.970609
0.970579
0.972671
0.973117
0.969622
0.974115
0.975972
0.97364
0.974084
0.955862
0.954021
0.958998
0.959574
0.961625
0.963027
0.951935
0.952768
0.95055
0.950081
0.952038
0.953474
0.950114
0.951058
0.951584
0.954167
0.953864
0.954571
0.965003
0.969087
0.969856
0.961601
0.961307
0.96805
0.954845
0.956096
0.959199
0.955311
0.954255
0.966098
0.966771
0.962478
0.967988
0.962579
0.970079
0.96816
0.9708
0.964777
0.97305
0.972555
0.972663
0.971691
0.972958
0.971729
0.959836
0.959505
0.957785
0.956187
0.957411
0.954686
0.964883
0.967531
0.966516
0.967419
0.967698
0.96921
0.970486
0.970524
0.972304
0.975166
0.972125
0.972572
0.969076
0.976209
0.975506
0.979223
0.976274
0.974194
0.975999
0.955449
0.954072
0.959035
0.959464
0.961482
0.962607
0.95161
0.951865
0.950674
0.949608
0.950177
0.951952
0.952915
0.94805
0.949801
0.951793
0.949998
0.952754
0.952655
0.964567
0.968754
0.969739
0.971279
0.961807
0.961005
0.962198
0.968019
0.955378
0.957295
0.955371
0.953342
0.965806
0.966985
0.962314
0.968261
0.968671
0.970437
0.963526
0.974216
0.972978
0.974021
0.97359
0.97121
0.971635
0.960318
0.957097
0.956785
0.964193
0.95762
0.957599
0.953131
0.959037
0.953457
0.966662
0.967927
0.970152
0.970023
0.965774
0.967394
0.967392
0.969135
0.970036
0.972323
0.97077
0.972776
0.975155
0.972956
0.973803
0.975401
0.978699
0.97906
0.981588
0.979747
0.978644
0.978056
0.957231
0.954931
0.952235
0.959155
0.961176
0.961109
0.96419
0.951421
0.951264
0.950414
0.950332
0.946876
0.94792
0.951516
0.947083
0.947757
0.948939
0.950435
0.951264
0.953002
0.953602
0.964122
0.969114
0.969777
0.972774
0.961416
0.962316
0.961449
0.970593
0.950684
0.957038
0.952147
0.950512
0.965545
0.966916
0.96143
0.96892
0.969651
0.97168
0.962731
0.973824
0.97715
0.97526
0.97818
0.980079
0.971708
0.971053
0.971473
0.961269
0.957855
0.954859
0.958837
0.96454
0.96251
0.955969
0.957738
0.956458
0.95138
0.953281
0.952923
0.96543
0.969187
0.972595
0.965729
0.966711
0.968538
0.969574
0.97091
0.972208
0.973833
0.972607
0.974998
0.978362
0.974572
0.974237
0.979584
0.979467
0.981308
0.981633
0.982361
0.980895
0.97913
0.978513
0.956695
0.952932
0.951808
0.96045
0.960865
0.96286
0.964542
0.949804
0.951106
0.948245
0.950433
0.946557
0.945844
0.947796
0.947312
0.950896
0.945407
0.946897
0.947782
0.951496
0.948072
0.952663
0.966639
0.970853
0.971445
0.974484
0.961425
0.961906
0.961598
0.966572
0.972773
0.950671
0.956844
0.949454
0.952404
0.948954
0.949168
0.966245
0.964589
0.967097
0.969863
0.968946
0.971816
0.961955
0.976382
0.979434
0.978123
0.980632
0.97923
0.975554
0.971155
0.974697
0.974203
0.960664
0.955089
0.959993
0.954169
0.952881
0.963577
0.963286
0.956214
0.959571
0.957975
0.953871
0.952614
0.955315
0.951948
0.962301
0.965782
0.969186
0.970628
0.966159
0.967203
0.968493
0.969412
0.970979
0.972298
0.973796
0.975013
0.974105
0.976527
0.978556
0.97959
0.982809
0.982093
0.980624
0.982481
0.984005
0.982548
0.980752
0.980106
0.978397
0.979424
0.95676
0.952206
0.951983
0.960328
0.960813
0.962874
0.963801
0.94768
0.949372
0.950402
0.947915
0.945496
0.946423
0.945879
0.947942
0.946586
0.945051
0.946113
0.946153
0.948168
0.949979
0.966187
0.971988
0.971932
0.977238
0.961379
0.963253
0.963111
0.969281
0.975188
0.948561
0.94829
0.949736
0.953237
0.947442
0.949407
0.9489
0.966048
0.963721
0.968188
0.969913
0.969175
0.973816
0.96274
0.97968
0.980368
0.981392
0.980872
0.982823
0.980284
0.981697
0.975562
0.972884
0.974251
0.977019
0.974
0.976031
0.953078
0.955322
0.958269
0.959415
0.953
0.951919
0.9527
0.964188
0.959544
0.964453
0.954508
0.956895
0.958355
0.957501
0.953642
0.954245
0.953545
0.950285
0.953545
0.950143
0.951888
0.963276
0.964887
0.967191
0.969928
0.976194
0.964937
0.966606
0.968625
0.96922
0.971742
0.974166
0.973445
0.976976
0.976762
0.980753
0.982711
0.984514
0.985587
0.981061
0.983359
0.986061
0.987289
0.983185
0.985633
0.984393
0.980095
0.978637
0.958758
0.950833
0.960392
0.961409
0.962934
0.964864
0.947744
0.949099
0.949255
0.946726
0.946204
0.946454
0.945391
0.946874
0.947456
0.946498
0.946945
0.945288
0.945249
0.946575
0.947448
0.947485
0.949562
0.96663
0.971861
0.974813
0.980357
0.978666
0.958747
0.962268
0.963719
0.961216
0.968233
0.969724
0.974395
0.949287
0.949309
0.950867
0.946454
0.947676
0.945997
0.948133
0.966181
0.966602
0.967086
0.97183
0.971078
0.978493
0.972584
0.960985
0.981248
0.980134
0.982347
0.981598
0.984364
0.979971
0.985747
0.981059
0.974142
0.977602
0.973919
0.972697
0.976438
0.975796
0.95312
0.954369
0.952733
0.957305
0.958541
0.952125
0.949617
0.952457
0.955296
0.964819
0.958776
0.954582
0.96179
0.954346
0.957768
0.954046
0.951443
0.954898
0.953515
0.948414
0.955567
0.947664
0.945154
0.948072
0.955528
0.962256
0.963162
0.965562
0.970368
0.97185
0.972944
0.965361
0.967631
0.968216
0.970026
0.971199
0.973985
0.977032
0.97771
0.976636
0.978508
0.976304
0.984267
0.980349
0.98582
0.986632
0.98605
0.985958
0.98361
0.984233
0.984589
0.990479
0.989232
0.988641
0.988184
0.986369
0.985414
0.985328
0.978924
0.958669
0.95031
0.961805
0.96348
0.965298
0.945425
0.946384
0.947139
0.948414
0.946323
0.944131
0.945606
0.943778
0.946874
0.945309
0.946997
0.943856
0.945177
0.945227
0.946503
0.948356
0.967572
0.970483
0.973474
0.97433
0.980573
0.959128
0.962968
0.963198
0.961898
0.963673
0.968011
0.973437
0.969743
0.974283
0.980511
0.946836
0.946801
0.950836
0.94537
0.945037
0.947063
0.943776
0.944808
0.944459
0.967561
0.964709
0.969021
0.972437
0.97
0.976615
0.977738
0.971238
0.96959
0.960956
0.980281
0.991422
0.980035
0.983211
0.982133
0.980002
0.981698
0.991327
0.983759
0.981586
0.983933
0.989306
0.978628
0.984611
0.972798
0.975652
0.977905
0.973351
0.975502
0.978655
0.975615
0.976672
0.951274
0.954234
0.956575
0.951098
0.95137
0.95746
0.959685
0.950924
0.947395
0.946636
0.952357
0.955536
0.958101
0.962395
0.954704
0.958185
0.961274
0.954484
0.955781
0.957629
0.954447
0.951117
0.955527
0.955256
0.94952
0.948522
0.955442
0.957765
0.943842
0.946421
0.945374
0.947627
0.948012
0.961052
0.953506
0.96295
0.963201
0.966875
0.970019
0.980969
0.97126
0.971289
0.976984
0.964025
0.96679
0.967124
0.968324
0.969947
0.971326
0.979723
0.979003
0.978861
0.978871
0.985543
0.982878
0.985938
0.991279
0.989461
0.991326
0.982932
0.984376
0.991758
0.994155
0.989991
0.991687
0.988936
0.98779
0.987111
0.982123
0.958465
0.949045
0.961379
0.963575
0.964681
0.944896
0.945789
0.946527
0.947122
0.945799
0.943164
0.944336
0.942763
0.945696
0.94358
0.946055
0.941868
0.94424
0.944389
0.944288
0.947205
0.946109
0.967051
0.969843
0.972646
0.976874
0.979983
0.96007
0.963957
0.962835
0.960367
0.969554
0.963397
0.969925
0.974111
0.976365
0.971171
0.97441
0.97738
0.982966
0.981884
0.983545
0.945908
0.946401
0.947226
0.94507
0.950829
0.943938
0.943881
0.942818
0.942403
0.943617
0.945192
0.942435
0.943448
0.94224
0.942775
0.942936
0.967282
0.964389
0.968384
0.976017
0.969828
0.969377
0.978277
0.976952
0.976708
0.967343
0.971055
0.967946
0.970234
0.959616
0.961114
0.991887
0.991692
0.989737
0.983369
0.984793
0.984753
0.984903
0.982398
0.993467
0.984862
0.994529
0.980574
0.981949
0.98967
0.980558
0.989114
0.974575
0.977025
0.980429
0.975448
0.977108
0.976278
0.951179
0.949884
0.955591
0.956519
0.950923
0.951649
0.959075
0.95632
0.957408
0.958206
0.948026
0.945096
0.943835
0.94742
0.95445
0.949915
0.959483
0.952252
0.955374
0.96196
0.951337
0.959864
0.956957
0.961173
0.955528
0.953121
0.955036
0.950016
0.957015
0.951183
0.94848
0.946435
0.956935
0.956125
0.960715
0.942304
0.942837
0.94475
0.943144
0.946304
0.945227
0.947509
0.947057
0.948327
0.961298
0.95175
0.961775
0.963166
0.960739
0.964797
0.965826
0.969082
0.977778
0.982392
0.975529
0.969047
0.973084
0.970654
0.976336
0.960568
0.965352
0.9678
0.969393
0.970777
0.980074
0.980487
0.982276
0.982346
0.987348
0.984586
0.982649
0.989908
0.997423
0.996146
0.996623
0.983715
0.989865
0.995705
0.996452
0.997211
0.992362
0.995966
0.989333
0.992994
0.985685
0.986148
0.947355
0.962561
0.9636
0.965917
0.943618
0.945279
0.944432
0.946965
0.942722
0.942421
0.945691
0.943107
0.943528
0.942167
0.942062
0.94414
0.943455
0.947276
0.945187
0.967083
0.969143
0.972211
0.983352
0.963326
0.963122
0.960892
0.967363
0.96317
0.967324
0.974738
0.976042
0.971853
0.975806
0.982699
0.976379
0.985114
0.983252
0.985009
0.98554
0.985871
0.943284
0.943781
0.947123
0.94514
0.942966
0.943216
0.942006
0.939003
0.939673
0.942638
0.943503
0.942451
0.942046
0.942141
0.941716
0.942137
0.940638
0.941
0.967078
0.966329
0.97516
0.972274
0.968996
0.98093
0.976768
0.977244
0.976908
0.976606
0.967
0.970334
0.965534
0.967059
0.968648
0.974659
0.959049
0.99465
0.991521
0.993533
0.990437
0.989303
0.984158
0.984769
0.992498
0.986745
0.993792
0.986077
1.00209
0.992033
0.991624
0.998066
0.991912
0.980699
0.982177
0.98733
0.991554
0.981579
0.985507
0.99003
0.975491
0.974466
0.97709
0.978717
0.980478
0.978651
0.978438
0.951237
0.949451
0.955363
0.952155
0.948872
0.950594
0.958166
0.955692
0.956859
0.959819
0.946837
0.94618
0.942372
0.942247
0.944848
0.951078
0.947583
0.949497
0.959733
0.951305
0.953826
0.962579
0.950659
0.95188
0.959297
0.955933
0.955816
0.960661
0.955501
0.952863
0.955921
0.953455
0.950927
0.946905
0.951287
0.950472
0.949541
0.946379
0.946734
0.958447
0.952621
0.958625
0.961747
0.941423
0.940348
0.941051
0.941712
0.944328
0.939602
0.942569
0.941591
0.947851
0.944139
0.94748
0.942895
0.943298
0.954288
0.964311
0.951632
0.961961
0.962686
0.962591
0.96491
0.960104
0.963906
0.964194
0.967438
0.969102
0.978076
0.982606
0.982786
0.972215
0.966084
0.970029
0.975123
0.972189
0.971476
0.985497
0.978745
0.959592
0.957291
0.961303
0.966849
0.966101
0.968957
0.970869
0.972361
0.982515
0.980681
0.984126
0.982481
0.991555
0.986569
0.985407
0.984732
0.991947
0.997992
0.998122
0.998077
0.998369
0.99301
1.00181
1.00298
1.00286
0.998336
0.997791
0.988393
0.998365
0.987325
0.946846
0.965025
0.966217
0.943387
0.942912
0.944697
0.941538
0.942597
0.942187
0.942061
0.941115
0.942138
0.940367
0.946001
0.944584
0.968699
0.962911
0.967183
0.962621
0.967356
0.962771
0.963988
0.967394
0.975878
0.975024
0.976483
0.981835
0.968027
0.972437
0.982886
0.980922
0.989199
0.98676
0.983923
0.989238
0.989306
0.994453
0.941176
0.942864
0.943194
0.945614
0.943641
0.942293
0.941087
0.940295
0.939087
0.938227
0.93848
0.937979
0.938954
0.938897
0.944515
0.941014
0.939624
0.941101
0.93998
0.939962
0.94
0.939811
0.939714
0.967725
0.974377
0.971366
0.979328
0.97711
0.976689
0.983195
0.975646
0.979028
0.976057
0.966305
0.968027
0.96816
0.970242
0.976681
0.964539
0.965291
0.967935
0.971009
0.974159
0.974742
0.958837
0.997535
0.996535
0.993573
0.999403
0.988899
0.99485
0.991308
0.987949
0.983552
0.995559
0.997741
0.986301
0.998055
0.997694
0.989564
1.00594
0.999273
0.998732
0.99004
0.997872
0.998402
0.983114
0.98372
0.988972
0.990378
0.982492
0.986592
0.989709
0.974811
0.97808
0.980787
0.978838
0.983915
0.952557
0.950326
0.947604
0.955191
0.951119
0.95137
0.946829
0.948517
0.950052
0.956857
0.958584
0.955772
0.955877
0.959282
0.94595
0.9442
0.946542
0.94277
0.941689
0.942754
0.939717
0.94582
0.942303
0.951101
0.947643
0.948754
0.956514
0.948757
0.950793
0.953942
0.958785
0.949315
0.950556
0.951456
0.959882
0.957988
0.953777
0.955526
0.954902
0.95556
0.958104
0.964709
0.95746
0.954284
0.948942
0.951413
0.948162
0.947122
0.944743
0.958038
0.959172
0.952958
0.953835
0.959764
0.961717
0.940375
0.94099
0.939787
0.9383
0.94
0.940246
0.941047
0.943545
0.938248
0.939056
0.939226
0.941086
0.946999
0.949529
0.94065
0.944173
0.94864
0.946289
0.939605
0.943314
0.956832
0.965578
0.965025
0.970009
0.944641
0.950729
0.960046
0.962107
0.962638
0.963327
0.958883
0.959748
0.964
0.963612
0.96329
0.960997
0.965744
0.967989
0.970047
0.981968
0.98854
0.981826
0.976063
0.971195
0.971999
0.964279
0.966107
0.965848
0.984413
0.974907
0.973898
0.989268
0.976524
0.986717
0.962373
0.959548
0.955292
0.963666
0.966814
0.969137
0.971067
0.97273
0.982703
0.981874
0.985356
0.983896
0.993563
0.989415
0.988647
0.985014
0.998263
0.998748
1.00003
1.00438
0.999707
1.00379
1.00267
1.00047
0.99721
0.992818
1.00031
0.989964
0.964718
0.965498
0.944141
0.94128
0.941432
0.941414
0.939915
0.94146
0.965678
0.96779
0.962443
0.967181
0.964014
0.963871
0.964196
0.969305
0.975801
0.980004
0.976152
0.973591
0.980179
0.981556
0.984259
0.968947
0.9686
0.974872
0.979174
0.988284
0.994273
0.987454
0.988884
0.991593
0.99586
0.941194
0.941415
0.941056
0.942869
0.94141
0.938938
0.940303
0.93904
0.938661
0.938459
0.939291
0.936968
0.937476
0.936928
0.937859
0.93601
0.938149
0.936261
0.941538
0.944802
0.937849
0.937632
0.939651
0.93937
0.939407
0.939022
0.937847
0.967917
0.971197
0.978537
0.975657
0.97745
0.98407
0.976673
0.975405
0.978813
0.97537
0.965604
0.966995
0.970248
0.972126
0.967533
0.967673
0.973377
0.976374
0.975299
0.963874
0.965338
0.966487
0.969063
0.972956
0.973135
0.997397
1.00267
0.99822
1.00382
0.996082
0.991735
0.995237
0.995898
0.992509
0.994027
0.990337
0.996576
0.995903
1.00204
0.993064
1.00032
0.999759
0.997953
0.99824
0.988879
1.00923
0.999757
0.997827
0.999643
0.996709
0.996438
0.999472
0.983316
0.98537
0.988825
0.991415
0.989417
0.981868
0.986879
0.98575
0.992071
0.976534
0.980882
0.980249
0.983249
0.952379
0.948006
0.950588
0.946595
0.949078
0.950696
0.956946
0.95376
0.955297
0.956576
0.956506
0.945249
0.943606
0.943959
0.942158
0.942679
0.938508
0.940743
0.937912
0.937741
0.939083
0.944339
0.939648
0.942042
0.950762
0.952731
0.946251
0.945389
0.94549
0.948985
0.945008
0.951035
0.956814
0.957243
0.944636
0.948927
0.949446
0.957504
0.957413
0.95294
0.955813
0.953831
0.954622
0.955695
0.958538
0.963234
0.95471
0.949919
0.952586
0.949664
0.948505
0.948442
0.945853
0.944797
0.942332
0.955824
0.958627
0.959347
0.954037
0.954674
0.959986
0.96032
0.963058
0.938699
0.937829
0.93823
0.936975
0.937454
0.937804
0.936229
0.937701
0.938279
0.938182
0.938484
0.938893
0.948845
0.952027
0.940235
0.944294
0.951416
0.943374
0.942043
0.939005
0.939679
0.954723
0.954006
0.962262
0.966325
0.965981
0.966145
0.96825
0.969583
0.942319
0.93975
0.944651
0.960333
0.963226
0.964058
0.958991
0.95904
0.961296
0.96305
0.963635
0.962844
0.963176
0.961604
0.960314
0.964945
0.968328
0.973052
0.983851
0.988787
0.984834
0.986467
0.980532
0.974058
0.974743
0.970339
0.973891
0.968242
0.957831
0.963044
0.965325
0.963939
0.967399
0.989992
0.978912
0.992443
0.988956
0.969647
0.982177
0.986989
0.985204
0.966593
0.95708
0.956438
0.95577
0.952355
0.955544
0.953451
0.968933
0.969062
0.972228
0.98734
0.985411
0.988743
0.994768
0.988142
0.989377
0.991035
1.00074
1.00582
1.00869
1.00591
1.00017
1.00353
1.00563
1.01028
1.00983
0.997841
1.00036
0.991671
1.00147
1.00092
0.965856
0.93784
0.940179
0.938674
0.966897
0.962961
0.967098
0.967971
0.96415
0.96519
0.978567
0.980525
0.97822
0.974513
0.979719
0.981079
0.981649
0.983019
0.989985
0.969255
0.969647
0.966798
0.972823
0.976451
0.980885
0.986583
0.993364
0.987115
0.991825
0.991316
0.993734
0.998472
0.939906
0.938197
0.944109
0.939455
0.93808
0.937364
0.937949
0.936954
0.937214
0.938833
0.93822
0.935386
0.936905
0.936369
0.935975
0.936017
0.933874
0.936984
0.933728
0.935421
0.93883
0.940316
0.934275
0.937552
0.93522
0.936582
0.937248
0.937334
0.937109
0.936058
0.976089
0.98386
0.974901
0.976133
0.981683
0.988484
0.976018
0.974378
0.980957
0.974377
0.964209
0.966655
0.967167
0.969313
0.971369
0.968229
0.964849
0.96843
0.971778
0.975992
0.974373
0.963649
0.96378
0.965913
0.971447
0.969155
0.972844
0.973728
1.00208
0.998421
1.00195
1.01
1.01118
1.00913
0.998629
0.996281
0.992583
0.994391
0.996476
0.994052
0.988719
0.998324
1.0057
1.00019
0.998747
1.0064
0.995082
1.0021
1.00417
1.00491
1.00019
0.999397
0.999267
0.99893
0.995356
1.01028
1.00737
1.01222
1.00005
0.997465
0.997251
1.00082
1.00084
0.984697
0.987565
0.989352
0.985783
0.985386
0.989231
0.994205
0.991087
0.983136
0.952229
0.947639
0.94965
0.951534
0.946318
0.947215
0.949084
0.949484
0.953918
0.956357
0.957305
0.956215
0.943305
0.943389
0.940141
0.938439
0.937403
0.937885
0.937888
0.936534
0.938734
0.944544
0.939407
0.94233
0.948921
0.952004
0.948219
0.945339
0.945842
0.94282
0.942971
0.948585
0.943437
0.950059
0.955626
0.94405
0.944757
0.950181
0.957517
0.957108
0.952047
0.953225
0.954452
0.952831
0.953941
0.951167
0.958962
0.957594
0.959213
0.963405
0.951727
0.950646
0.946772
0.94268
0.945932
0.942088
0.95702
0.959595
0.959197
0.953645
0.954546
0.95513
0.959692
0.960577
0.962742
0.963899
0.937697
0.936954
0.936844
0.936176
0.936089
0.935631
0.934647
0.934702
0.936313
0.936475
0.93676
0.93858
0.951599
0.947691
0.952534
0.935477
0.941032
0.93813
0.946985
0.938131
0.938219
0.938479
0.943607
0.936037
0.93691
0.940315
0.955194
0.958763
0.955661
0.950253
0.961185
0.962412
0.966859
0.963764
0.966849
0.968489
0.964684
0.969081
0.970933
0.941262
0.93949
0.938352
0.942869
0.944548
0.959895
0.963131
0.957605
0.960207
0.963053
0.962748
0.965014
0.961527
0.962541
0.96105
0.961213
0.959966
0.964557
0.966063
0.966509
0.971405
0.977167
0.978504
0.987751
0.994542
0.98438
0.986128
0.990518
0.981051
0.973503
0.974716
0.980047
0.975058
0.970411
0.965755
0.967836
0.969821
0.968167
0.955919
0.960573
0.964111
0.965567
0.964854
0.966651
0.991011
0.977498
0.977458
0.99735
0.994038
0.995544
0.971887
0.979382
0.986563
0.988103
0.984761
0.964602
0.95126
0.954314
0.957425
0.954488
0.955854
0.953164
0.96137
0.97051
0.971459
0.987074
0.989264
0.988266
0.99216
0.997969
0.993226
0.993938
1.0109
1.01149
1.00828
1.00843
1.00947
1.01723
1.00249
1.01596
0.997094
1.00243
1.00525
1.00269
0.936943
0.937649
0.963592
0.967972
0.969722
0.963523
0.965528
0.965174
0.978752
0.975547
0.980106
0.980617
0.988197
0.983718
0.985275
0.990956
0.971923
0.96861
0.970835
0.966897
0.973421
0.978696
0.976
0.981013
0.987035
0.985865
0.99421
0.991124
0.995953
0.992283
0.994198
0.994166
0.998992
0.937828
0.937269
0.940871
0.937866
0.937138
0.935475
0.935838
0.937475
0.936804
0.934247
0.934794
0.93592
0.936856
0.935087
0.935273
0.936256
0.933789
0.933214
0.935046
0.935037
0.931878
0.932005
0.934372
0.938293
0.938578
0.940864
0.932724
0.933678
0.932714
0.93685
0.933824
0.9337
0.935173
0.936848
0.935602
0.935106
0.976111
0.978469
0.98311
0.974234
0.978014
0.976212
0.980974
0.984552
0.987221
0.978328
0.982387
0.980809
0.973327
0.963904
0.967442
0.966507
0.966575
0.971022
0.971078
0.966755
0.96409
0.967894
0.970872
0.973377
0.975048
0.979496
0.975015
0.967242
0.970972
0.974145
0.973453
1.01221
1.0017
1.01429
1.00258
1.01076
1.01758
1.02065
1.01365
1.01127
0.998352
0.996201
0.994017
0.996849
0.994226
0.985094
0.990871
0.997678
0.999956
1.0039
1.01301
0.995595
1.01405
1.01501
0.994921
1.00708
1.01154
1.01447
1.00493
0.99972
1.00007
1.00517
1.01757
1.01019
1.02185
1.00461
1.00011
0.996825
1.00375
0.999745
1.00455
0.986741
0.988941
0.988808
0.986989
0.985453
0.987283
0.992494
0.991726
0.94953
0.944518
0.945939
0.947626
0.948813
0.949335
0.949716
0.953476
0.956182
0.955567
0.942969
0.943192
0.940787
0.938288
0.936912
0.936767
0.937213
0.935589
0.937666
0.94396
0.939222
0.939716
0.941075
0.947235
0.949035
0.949741
0.947331
0.944359
0.945006
0.940198
0.941409
0.945161
0.941948
0.939976
0.950325
0.955605
0.953662
0.944117
0.944311
0.94912
0.956425
0.957087
0.955356
0.952077
0.951952
0.953511
0.952726
0.951302
0.950812
0.950997
0.958861
0.95523
0.957545
0.955493
0.95957
0.959823
0.953858
0.949638
0.94699
0.942738
0.942362
0.94477
0.942932
0.941235
0.957919
0.961309
0.953848
0.954837
0.95323
0.958876
0.960871
0.961946
0.96215
0.963508
0.961745
0.964532
0.934994
0.936286
0.934163
0.934525
0.934286
0.935224
0.934387
0.933319
0.932223
0.934229
0.933797
0.935584
0.935952
0.933736
0.93533
0.936781
0.949817
0.950065
0.936182
0.93368
0.938206
0.937723
0.936218
0.944932
0.933294
0.940258
0.935523
0.941611
0.939303
0.93544
0.935905
0.936427
0.938448
0.955865
0.949986
0.947191
0.956862
0.962016
0.947101
0.953679
0.965342
0.967403
0.970618
0.97066
0.963044
0.965294
0.968699
0.968056
0.969437
0.966036
0.968045
0.973555
0.978487
0.938417
0.938112
0.936413
0.939983
0.942983
0.942297
0.961471
0.957047
0.959996
0.961271
0.961649
0.963637
0.960801
0.963352
0.960759
0.960951
0.958277
0.958565
0.964982
0.967933
0.963719
0.963628
0.970274
0.972211
0.976602
0.978469
0.990116
0.990199
0.992577
0.995825
0.984193
0.984697
0.990376
0.987858
0.981829
0.973919
0.975596
0.970401
0.976832
0.980085
0.970478
0.969651
0.970885
0.963835
0.965131
0.963473
0.963871
0.955875
0.957459
0.961117
0.960776
0.961834
0.965423
0.977795
0.980702
1.00025
0.994461
0.999434
0.995497
0.97218
0.980891
0.989248
0.988632
0.987529
0.966837
0.950567
0.953332
0.955023
0.957368
0.953875
0.950688
0.953673
0.957046
0.950159
0.95208
0.961213
0.969945
0.988076
0.989677
0.99118
0.991238
0.996929
0.991609
0.993053
1.01693
1.01587
1.00893
1.00843
1.00945
1.01257
1.00921
1.02103
1.00283
1.02042
1.01486
1.00233
1.00282
1.00637
1.00305
0.968729
0.964659
0.965338
0.975565
0.9819
0.982172
0.98943
0.990969
0.984277
0.991557
0.991852
0.969756
0.972123
0.973217
0.967405
0.978607
0.977704
0.977901
0.983584
0.98699
0.987122
0.995591
0.997861
0.997572
0.99872
0.999842
0.93645
0.940642
0.938484
0.936709
0.933427
0.937332
0.934547
0.93399
0.935578
0.933936
0.933154
0.932725
0.931625
0.930968
0.933332
0.93309
0.935946
0.933926
0.931242
0.931019
0.93224
0.932625
0.934784
0.934398
0.937767
0.935969
0.940197
0.933077
0.932399
0.933668
0.931245
0.934822
0.933523
0.931424
0.931787
0.932669
0.977539
0.977992
0.981475
0.973633
0.975375
0.977596
0.973651
0.982357
0.986584
0.981661
0.965099
0.966952
0.964924
0.972183
0.970719
0.970438
0.972409
0.966266
0.968449
0.962933
0.966012
0.96665
0.969706
0.971514
0.971943
0.97591
0.974138
0.978147
0.981534
0.971839
0.973568
1.00812
1.01577
1.01207
1.00007
1.01468
1.01296
1.01673
1.01311
1.02427
1.02441
1.02571
1.01332
1.01647
1.0049
0.993996
0.995914
1.00002
0.996262
0.994007
0.983936
0.988468
0.989152
0.999008
0.99965
1.01253
1.01155
1.01821
1.00368
1.01202
1.01523
1.02094
1.0054
1.00635
1.00701
1.00936
1.01516
1.01698
1.01049
1.00577
0.999686
1.00411
1.01042
1.01912
1.0273
1.00338
1.00452
1.00134
1.00882
0.990379
0.986384
0.98891
0.986775
0.994864
0.992394
0.944003
0.945319
0.947445
0.948708
0.94989
0.954853
0.954858
0.940595
0.937107
0.935236
0.936653
0.93549
0.935606
0.934198
0.940933
0.938872
0.937619
0.940522
0.946921
0.94991
0.949934
0.944716
0.941637
0.940713
0.945656
0.939161
0.939861
0.943527
0.940739
0.939083
0.941359
0.948084
0.952168
0.943815
0.944281
0.948354
0.95649
0.956211
0.954254
0.954164
0.950312
0.953218
0.951045
0.950166
0.950055
0.950066
0.950314
0.95832
0.95463
0.954894
0.951045
0.956656
0.95428
0.958365
0.959713
0.948539
0.94485
0.941944
0.945798
0.941538
0.945771
0.940707
0.944683
0.939552
0.936822
0.961975
0.95465
0.954483
0.955097
0.9589
0.960854
0.96471
0.963285
0.961925
0.964046
0.961076
0.965038
0.933751
0.934303
0.932065
0.932885
0.93438
0.934304
0.934265
0.932919
0.932119
0.933797
0.932423
0.932892
0.930319
0.932492
0.932472
0.934488
0.934032
0.934177
0.932447
0.933049
0.934241
0.935281
0.949517
0.952671
0.933186
0.93144
0.933014
0.931901
0.937102
0.936881
0.947397
0.933603
0.933184
0.937418
0.94029
0.93598
0.938262
0.938876
0.933745
0.933291
0.934797
0.936125
0.936059
0.936151
0.962157
0.953187
0.952041
0.947337
0.957131
0.960057
0.958278
0.95187
0.950881
0.967683
0.971612
0.972584
0.972947
0.976989
0.965105
0.964746
0.967339
0.970696
0.968903
0.971723
0.969678
0.968846
0.966153
0.966455
0.970118
0.972347
0.973368
0.937746
0.93681
0.933787
0.935192
0.936693
0.938854
0.93947
0.943871
0.938382
0.939218
0.939704
0.958287
0.960766
0.963355
0.961718
0.961689
0.959211
0.959441
0.957271
0.957961
0.965153
0.961721
0.966802
0.962651
0.96126
0.960918
0.969908
0.973097
0.97417
0.988522
0.993769
0.990025
0.993959
1.00719
0.983021
0.983394
0.988964
0.988799
0.986355
0.978735
0.976849
0.979312
0.973354
0.971352
0.969058
0.967587
0.980448
0.977331
0.979887
0.992892
0.967178
0.971435
0.963618
0.968124
0.968614
0.963966
0.961882
0.96102
0.96301
0.963148
0.961234
0.95209
0.956029
0.957069
0.959501
0.962395
0.976805
0.968578
0.979165
1.00008
1.0031
1.00492
0.999304
0.995074
0.998384
0.980584
0.989038
0.99839
0.988751
0.98693
0.961891
0.950466
0.949472
0.953944
0.956141
0.949862
0.949201
0.956906
0.95373
0.95429
0.948593
0.949101
0.965749
0.951112
0.971815
0.990628
0.999664
0.998086
0.996872
0.994375
1.00081
1.01761
1.01911
1.01514
1.01482
1.00733
1.01066
1.01816
1.01352
1.02895
1.00509
1.02498
1.02095
1.01333
1.00173
1.00911
1.00316
0.965642
0.967216
0.976716
0.988702
0.981766
0.990221
0.989723
0.991343
0.988757
0.991739
0.992002
0.969965
0.972774
0.979152
0.979955
0.975974
0.978776
0.985895
0.982015
0.987433
0.9875
0.99997
0.998974
0.998191
1.00124
0.933803
0.939299
0.936844
0.933025
0.93423
0.932755
0.933573
0.930133
0.930178
0.931159
0.931911
0.932764
0.931472
0.933282
0.929947
0.930859
0.929294
0.932071
0.931688
0.9311
0.936295
0.937249
0.93666
0.934045
0.932551
0.930598
0.930897
0.932001
0.930364
0.931703
0.928283
0.929685
0.93007
0.979692
0.977657
0.977567
0.980557
0.981851
0.982732
0.973954
0.979759
0.983709
0.983717
0.968385
0.964788
0.970935
0.970881
0.965635
0.967364
0.96182
0.964737
0.965871
0.968727
0.97015
0.970719
0.973353
0.975251
0.974735
0.97401
0.979329
0.975571
1.00712
1.01124
1.01699
1.02245
1.01146
1.01787
1.00171
1.02241
1.01348
1.01577
1.02423
1.0339
1.03856
1.03693
1.01177
1.02533
1.02475
1.00235
0.995892
0.993016
0.998916
0.993454
1.00096
0.999251
0.991755
0.990116
0.998376
0.987793
0.98832
0.998967
1.00659
0.999703
1.01411
1.00998
1.01706
1.02109
1.00349
1.0103
1.01235
1.01554
1.03306
1.00449
1.00858
1.01079
1.01039
1.00721
1.01015
1.01188
1.02517
1.0131
1.02697
1.01035
1.00549
1.0051
1.00854
1.00365
1.00309
1.02656
1.02926
1.03088
1.00471
1.00834
1.00383
0.989718
0.98792
0.994933
0.993103
0.946559
0.954223
0.939172
0.93548
0.93805
0.935733
0.940356
0.940347
0.939546
0.936257
0.937149
0.937626
0.944776
0.947798
0.946046
0.94605
0.940064
0.940345
0.944233
0.944854
0.937055
0.937339
0.941325
0.938938
0.936961
0.937849
0.938907
0.944607
0.942175
0.944016
0.943474
0.947382
0.94937
0.954872
0.955171
0.953478
0.949717
0.950807
0.949522
0.949386
0.948857
0.949033
0.94918
0.951102
0.958451
0.953569
0.954144
0.954224
0.950529
0.957225
0.956316
0.953669
0.95418
0.958937
0.949973
0.939492
0.946161
0.941572
0.945945
0.938887
0.941055
0.946351
0.936773
0.939802
0.952963
0.955544
0.956674
0.953096
0.958862
0.960483
0.961524
0.964785
0.959735
0.961032
0.967403
0.931265
0.931897
0.931255
0.931366
0.931629
0.93193
0.930407
0.931822
0.930635
0.93146
0.930392
0.929989
0.929921
0.932191
0.932452
0.932633
0.932356
0.931519
0.930979
0.931399
0.932222
0.932809
0.935437
0.95225
0.952976
0.928952
0.927997
0.930657
0.932039
0.931198
0.934422
0.93547
0.935169
0.945052
0.948323
0.931043
0.933114
0.932175
0.932526
0.934779
0.938856
0.933357
0.934256
0.939085
0.936534
0.93358
0.931982
0.932465
0.93267
0.934955
0.934956
0.93598
0.933876
0.934608
0.960975
0.959559
0.949748
0.953913
0.95169
0.94983
0.94789
0.954854
0.961587
0.957583
0.958485
0.962739
0.95085
0.948928
0.950656
0.97213
0.972931
0.974551
0.97417
0.978969
0.975752
0.977352
0.978844
0.967259
0.965116
0.963007
0.966942
0.971402