/*--------------------------------*- C++ -*----------------------------------*\
| =========                 |                                                 |
| \\      /  F ield         | OpenFOAM: The Open Source CFD Toolbox           |
|  \\    /   O peration     | Version:  v2006                                 |
|   \\  /    A nd           | Website:  www.openfoam.com                      |
|    \\/     M anipulation  |                                                 |
\*---------------------------------------------------------------------------*/
FoamFile
{
    version     2.0;
    format      ascii;
    class       volScalarField;
    location    "14.8";
    object      T;
}
// * * * * * * * * * * * * * * * * * * * * * * * * * * * * * * * * * * * * * //

dimensions      [0 0 0 1 0 0 0];


internalField   nonuniform List<scalar> 
341797
(
0.989379
0.989404
0.99005
0.988699
0.989499
0.98966
0.990013
0.990409
0.988572
0.988817
0.989506
0.989804
0.989723
0.99001
0.990757
0.990497
0.989268
0.988482
0.988303
0.988404
0.989097
0.989784
0.989885
0.990774
0.989751
0.990784
0.990851
0.991054
0.990989
0.989184
0.988187
0.988302
0.988112
0.988349
0.989163
0.988687
0.990351
0.990042
0.990902
0.989229
0.990546
0.990728
0.991089
0.991275
0.991914
0.988561
0.989104
0.988188
0.987209
0.988106
0.987231
0.987705
0.987878
0.989378
0.988069
0.988576
0.990372
0.990317
0.990021
0.991585
0.991246
0.989377
0.988522
0.990123
0.990637
0.991056
0.991084
0.991151
0.992184
0.992153
0.991919
0.98837
0.989051
0.989879
0.988141
0.986659
0.986605
0.987598
0.987296
0.987526
0.990007
0.989289
0.987593
0.987959
0.987848
0.991248
0.990276
0.99107
0.990079
0.991297
0.991692
0.989239
0.989082
0.988423
0.990402
0.991329
0.99154
0.991869
0.992037
0.992107
0.991984
0.992578
0.988446
0.988359
0.989438
0.989934
0.986962
0.98631
0.986385
0.986464
0.986431
0.987751
0.986674
0.986458
0.989805
0.989406
0.988187
0.986895
0.987043
0.987198
0.990743
0.990794
0.990022
0.991665
0.990385
0.991516
0.991597
0.992351
0.989653
0.988081
0.989623
0.988057
0.987989
0.990309
0.991407
0.991654
0.991699
0.992278
0.992171
0.992131
0.993171
0.991948
0.992713
0.993237
0.988404
0.988369
0.989601
0.989765
0.98686
0.986277
0.986234
0.986618
0.98581
0.986487
0.987484
0.986262
0.989393
0.988899
0.987185
0.987385
0.986835
0.986301
0.990977
0.990879
0.990833
0.990399
0.992131
0.99206
0.991863
0.990063
0.991823
0.991822
0.992467
0.989354
0.987833
0.988996
0.988038
0.988251
0.98996
0.991199
0.991778
0.991596
0.992157
0.99258
0.992776
0.993521
0.993334
0.991789
0.99308
0.99247
0.993908
0.987561
0.988451
0.989177
0.989467
0.990504
0.986733
0.986445
0.985614
0.986372
0.985544
0.985838
0.986546
0.986781
0.986494
0.989086
0.990413
0.988228
0.988731
0.98601
0.987165
0.98579
0.986183
0.986171
0.990908
0.990926
0.991718
0.989895
0.992431
0.991652
0.992184
0.98964
0.991802
0.991715
0.991619
0.9922
0.993404
0.989306
0.987686
0.988277
0.987048
0.987181
0.989616
0.989743
0.991816
0.992155
0.992408
0.992685
0.992646
0.993536
0.993489
0.993946
0.993996
0.992732
0.993998
0.993606
0.993885
0.99434
0.987737
0.986676
0.988778
0.989174
0.989768
0.990564
0.98619
0.986214
0.985399
0.98508
0.985635
0.986045
0.985272
0.985407
0.985916
0.985855
0.98628
0.986412
0.988385
0.989631
0.990266
0.986803
0.987185
0.989542
0.985953
0.985884
0.986369
0.985524
0.986207
0.991623
0.991713
0.989725
0.991897
0.989627
0.992835
0.99216
0.992129
0.989585
0.992007
0.991722
0.992664
0.991425
0.993028
0.993368
0.988829
0.986726
0.987806
0.985508
0.985507
0.986839
0.989514
0.989148
0.991928
0.992259
0.992348
0.992881
0.993418
0.993612
0.993994
0.994836
0.993907
0.993853
0.992602
0.994767
0.993986
0.994629
0.994628
0.994439
0.995095
0.987634
0.986787
0.98885
0.989227
0.989994
0.990396
0.986083
0.985965
0.985508
0.984937
0.985036
0.985497
0.985845
0.984394
0.985227
0.985381
0.985395
0.985715
0.985773
0.98805
0.989507
0.98982
0.990603
0.986828
0.986755
0.987242
0.989253
0.985971
0.985934
0.985243
0.985087
0.991661
0.991648
0.989636
0.992183
0.991924
0.99183
0.989623
0.992203
0.992711
0.992226
0.993382
0.993229
0.993465
0.988944
0.987063
0.984931
0.988175
0.987744
0.98546
0.984518
0.985691
0.986306
0.989595
0.989754
0.990311
0.989488
0.991646
0.992209
0.992236
0.992837
0.993224
0.993958
0.993771
0.994339
0.995004
0.994539
0.994325
0.994624
0.99515
0.994699
0.994783
0.995894
0.99593
0.99586
0.988453
0.987571
0.986357
0.989176
0.989931
0.989851
0.991146
0.986065
0.985662
0.985519
0.985241
0.98376
0.983835
0.985066
0.983913
0.984326
0.984523
0.984537
0.98517
0.985599
0.986234
0.987676
0.989356
0.989648
0.990798
0.986569
0.986778
0.986754
0.989524
0.984031
0.985387
0.983892
0.983447
0.991526
0.991674
0.989698
0.992346
0.991981
0.991826
0.989746
0.991619
0.993366
0.993342
0.993272
0.995646
0.993238
0.993337
0.993444
0.989527
0.987963
0.986414
0.985865
0.988434
0.988497
0.987647
0.987829
0.984741
0.98292
0.98323
0.986336
0.989338
0.990262
0.990974
0.988366
0.992062
0.992474
0.993157
0.993445
0.994164
0.994551
0.99432
0.9951
0.996074
0.995008
0.994578
0.996363
0.995691
0.995954
0.994729
0.995077
0.996042
0.996149
0.996089
0.988282
0.986879
0.986057
0.989436
0.989749
0.9904
0.9913
0.985631
0.985881
0.984765
0.985216
0.983768
0.983356
0.983827
0.983508
0.984342
0.983304
0.983819
0.984351
0.985193
0.983679
0.986051
0.988317
0.989731
0.989768
0.991028
0.986363
0.986161
0.986119
0.987662
0.98977
0.983822
0.985152
0.982899
0.983585
0.982811
0.983853
0.991718
0.990653
0.991821
0.992392
0.992209
0.991998
0.989356
0.992257
0.994543
0.992472
0.994019
0.995452
0.994806
0.993669
0.994628
0.994522
0.989389
0.986979
0.98861
0.986485
0.983886
0.988148
0.988656
0.987773
0.988732
0.985122
0.983733
0.983359
0.983712
0.983192
0.988996
0.99002
0.990691
0.990425
0.988416
0.992347
0.992708
0.993043
0.993647
0.994155
0.994701
0.995319
0.994761
0.995734
0.996205
0.99625
0.996772
0.995733
0.9937
0.995044
0.995516
0.995957
0.996657
0.996696
0.99614
0.99642
0.988342
0.986594
0.986495
0.989519
0.989917
0.990689
0.991057
0.984725
0.985457
0.985742
0.984502
0.983286
0.983776
0.98329
0.983572
0.983136
0.983127
0.983606
0.983601
0.984067
0.984894
0.987682
0.990036
0.989728
0.99186
0.986062
0.9863
0.986243
0.987908
0.990523
0.983177
0.98284
0.982855
0.983629
0.983142
0.982854
0.984114
0.991922
0.990262
0.992075
0.992561
0.992115
0.993288
0.989672
0.993985
0.994815
0.993201
0.993696
0.995047
0.99637
0.995761
0.994879
0.99425
0.994445
0.995789
0.994728
0.995402
0.986527
0.986864
0.987827
0.988649
0.985598
0.984069
0.983632
0.988035
0.987881
0.988446
0.987436
0.988421
0.988773
0.984658
0.983477
0.983498
0.983352
0.982762
0.982923
0.983768
0.982712
0.989841
0.990228
0.990046
0.990629
0.992414
0.987609
0.992132
0.992665
0.993
0.993951
0.994839
0.994645
0.996047
0.995836
0.997259
0.997109
0.997011
0.99717
0.993463
0.995054
0.996346
0.997833
0.995267
0.99774
0.998371
0.996763
0.996331
0.989137
0.986267
0.989881
0.99019
0.990574
0.99165
0.984657
0.985418
0.985156
0.983806
0.983596
0.983856
0.983124
0.983546
0.983115
0.983257
0.983179
0.983212
0.983193
0.983741
0.983724
0.9838
0.98466
0.987697
0.989631
0.990653
0.992888
0.992148
0.985115
0.985892
0.986328
0.984901
0.987963
0.988124
0.990131
0.982917
0.982706
0.982873
0.982845
0.982229
0.982953
0.98392
0.991913
0.991159
0.99162
0.993391
0.992676
0.99524
0.992961
0.989782
0.994891
0.995258
0.994033
0.994272
0.995279
0.996711
0.997983
0.995759
0.994311
0.995811
0.994901
0.994354
0.995476
0.995406
0.986606
0.9866
0.985318
0.987877
0.988429
0.985554
0.983658
0.983816
0.984082
0.988093
0.987819
0.985246
0.987887
0.987525
0.988667
0.983052
0.982782
0.983579
0.98306
0.981547
0.983085
0.983666
0.981842
0.981369
0.983451
0.989954
0.99018
0.9902
0.991502
0.991119
0.990426
0.987582
0.988102
0.992933
0.993146
0.993829
0.994911
0.99601
0.99639
0.995863
0.996559
0.995668
0.998571
0.99733
0.998458
0.998386
0.997329
0.997162
0.994295
0.994646
0.995244
0.99822
0.998216
0.997222
0.998782
0.998442
0.998669
0.998655
0.996384
0.989303
0.986238
0.990377
0.990776
0.991794
0.983907
0.983779
0.984814
0.985086
0.983825
0.982844
0.983694
0.982699
0.983111
0.982685
0.983264
0.982876
0.983016
0.983208
0.983377
0.98398
0.987987
0.98907
0.98994
0.990323
0.992928
0.984717
0.985942
0.985776
0.985256
0.98542
0.98739
0.989596
0.988123
0.990112
0.992411
0.982075
0.981686
0.982775
0.9821
0.981137
0.981672
0.982712
0.982502
0.982363
0.992333
0.990731
0.992778
0.993421
0.992999
0.994785
0.995487
0.991921
0.992746
0.989934
0.994661
0.998783
0.995147
0.994249
0.993786
0.994137
0.993856
0.998102
0.994837
0.99757
0.997421
0.999391
0.995928
0.997504
0.99428
0.995132
0.996213
0.994631
0.995378
0.996463
0.995464
0.995927
0.986724
0.987708
0.987665
0.985514
0.985354
0.988282
0.989153
0.984905
0.983164
0.982725
0.983761
0.984289
0.985
0.987389
0.985898
0.988082
0.988361
0.987681
0.98833
0.988957
0.983102
0.982196
0.983327
0.983281
0.981915
0.981082
0.9831
0.982964
0.982256
0.983382
0.981401
0.981414
0.981398
0.98479
0.98284
0.990165
0.990368
0.991221
0.991176
0.99476
0.99094
0.99004
0.991476
0.986818
0.987723
0.988215
0.992903
0.993461
0.993894
0.997196
0.996729
0.996727
0.996677
0.998929
0.998492
0.998629
1.00023
0.998962
0.999047
0.993976
0.994937
0.998445
0.999403
0.998871
0.998608
0.999181
0.999567
0.999379
0.997744
0.989258
0.985804
0.990306
0.991229
0.991619
0.98365
0.983986
0.98465
0.98489
0.983772
0.982393
0.982999
0.982095
0.982885
0.982151
0.982664
0.981927
0.982934
0.983025
0.983486
0.984734
0.983313
0.987388
0.988639
0.98958
0.991242
0.992481
0.984806
0.985984
0.98549
0.984881
0.987853
0.98555
0.988173
0.98987
0.990875
0.988858
0.990119
0.991333
0.99352
0.992946
0.993924
0.982223
0.981507
0.981331
0.980862
0.982645
0.982181
0.981939
0.980916
0.98023
0.980155
0.981193
0.982356
0.982739
0.982201
0.982467
0.981538
0.992616
0.99082
0.992782
0.995277
0.992795
0.992934
0.994779
0.995478
0.995429
0.991629
0.991848
0.992262
0.993071
0.989804
0.990342
0.998893
0.999478
0.999504
0.99407
0.99469
0.995734
0.995078
0.993808
0.999272
0.995057
0.998814
0.997311
0.99775
0.999593
0.996597
0.999508
0.995032
0.996241
0.996775
0.995556
0.996004
0.995763
0.986732
0.985659
0.9878
0.987987
0.985518
0.985858
0.989002
0.98813
0.988273
0.988966
0.984596
0.98309
0.982417
0.982658
0.985326
0.983239
0.986163
0.983183
0.983724
0.987095
0.985327
0.98874
0.987879
0.988405
0.988212
0.982576
0.983087
0.981616
0.983561
0.981898
0.980993
0.980373
0.983465
0.9832
0.984746
0.982424
0.981415
0.983641
0.980986
0.981911
0.981096
0.98076
0.980602
0.982181
0.985003
0.981863
0.990352
0.99031
0.98969
0.991169
0.990566
0.991249
0.99393
0.995657
0.991742
0.989405
0.990487
0.988771
0.991213
0.985116
0.986901
0.992776
0.993272
0.993725
0.997311
0.997233
0.998026
0.998193
0.999765
0.998858
0.998387
0.999853
1.00243
1.00106
1.00109
0.994096
0.997099
0.999867
1.00049
1.00173
0.999416
1.00156
1
1.00173
0.999035
0.999395
0.985159
0.99097
0.991184
0.992312
0.983208
0.983677
0.983592
0.984902
0.982292
0.981995
0.982713
0.981796
0.982065
0.982043
0.981925
0.982621
0.983186
0.985148
0.983795
0.987113
0.987917
0.989251
0.993811
0.985679
0.9855
0.984837
0.987023
0.985515
0.987146
0.990084
0.990613
0.988972
0.990532
0.993412
0.990785
0.994555
0.993631
0.994282
0.994666
0.995012
0.981776
0.98082
0.980848
0.98097
0.982217
0.981183
0.981011
0.980158
0.980125
0.980175
0.979861
0.980072
0.982173
0.982299
0.981994
0.982361
0.982055
0.981628
0.992605
0.991972
0.995152
0.994023
0.99269
0.996161
0.995712
0.995865
0.995584
0.995507
0.991734
0.992106
0.991752
0.991881
0.992682
0.995235
0.989669
1.00093
0.998538
1.00072
1.00012
0.999499
0.994263
0.996256
0.998609
0.995642
0.998924
0.995166
1.00265
0.998664
0.997726
1.00015
0.998106
0.99747
0.997818
0.999148
1.00076
0.997128
0.998911
1.00005
0.995501
0.995336
0.996177
0.996648
0.996746
0.996732
0.996649
0.986738
0.985619
0.987865
0.986259
0.985162
0.985655
0.989058
0.988266
0.988299
0.989147
0.984751
0.983935
0.983049
0.982645
0.982558
0.984679
0.983221
0.983018
0.986026
0.982577
0.983011
0.988025
0.985579
0.985541
0.988619
0.987752
0.987365
0.987767
0.988182
0.982298
0.983023
0.982571
0.981432
0.98058
0.981709
0.981424
0.981392
0.980305
0.980465
0.983831
0.981611
0.984077
0.984949
0.982439
0.981593
0.981681
0.982772
0.983491
0.980236
0.980996
0.979668
0.980509
0.980064
0.980679
0.979589
0.980832
0.982161
0.985867
0.981947
0.990765
0.990969
0.990373
0.99123
0.989533
0.991006
0.990671
0.990694
0.991562
0.994817
0.995238
0.996168
0.991003
0.989388
0.989417
0.990774
0.990401
0.989028
0.994788
0.992015
0.984957
0.984407
0.985392
0.987127
0.987032
0.993394
0.993772
0.994558
0.998036
0.99748
0.998853
0.998047
1.00126
0.999569
0.999082
0.999147
1.00094
1.00311
1.00216
1.00245
1.00219
0.998442
1.00229
1.00294
1.0036
1.00293
1.00335
0.999845
1.00344
0.999426
0.984976
0.991708
0.992402
0.98298
0.982913
0.984275
0.981827
0.982208
0.981935
0.981923
0.9817
0.982092
0.982168
0.984826
0.983962
0.987693
0.985462
0.987074
0.985407
0.987054
0.985394
0.985783
0.9871
0.990491
0.990111
0.990755
0.993049
0.987266
0.989188
0.993533
0.992588
0.996281
0.994975
0.993835
0.995999
0.996168
0.998205
0.981393
0.981008
0.980559
0.980619
0.98057
0.982137
0.981369
0.980918
0.980558
0.979867
0.979995
0.979455
0.979968
0.979091
0.980155
0.979267
0.980179
0.981688
0.981308
0.981598
0.981536
0.981787
0.980829
0.992699
0.995333
0.993774
0.995858
0.995698
0.995829
0.998215
0.995629
0.996575
0.99587
0.991995
0.992368
0.992064
0.992165
0.994903
0.991848
0.991895
0.993015
0.993813
0.995205
0.995346
0.989619
1.00229
1.00085
1.00133
1.00322
0.999786
1.00184
1.00054
0.995719
0.995442
1.00057
1.00119
0.995237
1
1.00059
0.996396
1.0045
1.00118
1.00044
0.996648
0.999872
1.00049
0.998397
0.998434
1.00021
1.00063
0.998016
0.999672
1.00054
0.995364
0.996526
0.997813
0.996976
0.998296
0.987312
0.986371
0.985258
0.988153
0.986274
0.986057
0.984742
0.985089
0.985425
0.988909
0.989515
0.988587
0.988003
0.989189
0.984766
0.98374
0.98372
0.983463
0.982995
0.983382
0.981885
0.983187
0.98189
0.984723
0.983153
0.983069
0.985572
0.982765
0.982197
0.983078
0.987039
0.985171
0.985472
0.985121
0.989274
0.988266
0.986949
0.987844
0.987591
0.987289
0.987746
0.989047
0.983549
0.982375
0.980479
0.981488
0.980578
0.980395
0.979858
0.983645
0.983991
0.981553
0.982145
0.984238
0.9848
0.982306
0.982685
0.981672
0.980789
0.981099
0.982205
0.98258
0.983512
0.980183
0.97973
0.979928
0.980736
0.980186
0.980627
0.97882
0.979958
0.980266
0.980785
0.978837
0.981159
0.983019
0.986357
0.986078
0.988268
0.980138
0.981346
0.990201
0.99078
0.991012
0.990964
0.9895
0.989455
0.991171
0.991266
0.990809
0.990061
0.990095
0.991295
0.992193
0.995518
0.999165
0.99566
0.992581
0.991915
0.990712
0.988848
0.988708
0.987606
0.994352
0.99069
0.990781
0.996075
0.99121
0.995067
0.986026
0.985457
0.984792
0.986413
0.98711
0.993605
0.994158
0.994759
0.998142
0.997896
0.999273
0.998622
1.00227
1.0008
1.00057
0.99923
1.00309
1.00247
1.0034
1.00387
1.00111
1.00314
1.00407
1.00362
1.00327
1.0018
1.00472
1.00054
0.991922
0.992171
0.98394
0.981735
0.981865
0.981699
0.981142
0.981688
0.986498
0.987253
0.985291
0.987016
0.985855
0.985784
0.985942
0.987787
0.990508
0.992115
0.990568
0.989406
0.992212
0.992822
0.993956
0.987653
0.987496
0.990134
0.991682
0.995547
0.99807
0.995251
0.995908
0.996887
0.998748
0.981523
0.981083
0.980621
0.979465
0.979178
0.97919
0.981334
0.980788
0.979926
0.98045
0.980582
0.979892
0.979619
0.979743
0.979717
0.978685
0.979276
0.978779
0.979796
0.980087
0.979322
0.979533
0.981311
0.981287
0.98169
0.98084
0.98
0.993086
0.994183
0.996445
0.995577
0.996213
0.99883
0.996286
0.995874
0.996959
0.995946
0.992289
0.992416
0.993442
0.99427
0.992291
0.992199
0.993933
0.995405
0.995077
0.991609
0.992196
0.99267
0.993336
0.995044
0.994912
1.00234
1.00472
1.00241
1.00309
1.00219
1.00154
1.00189
1.00224
1.00182
1.00235
0.997909
1.00078
1.00156
1.00264
0.997841
1.00076
1.00098
0.999734
1.00055
0.995982
1.00574
1.00138
1.0003
1.001
0.999336
0.999094
1.00045
0.998621
0.999463
1.0002
1.00122
1.00054
0.99778
0.999879
0.999318
1.0018
0.996223
0.9978
0.997576
0.998529
0.987282
0.985615
0.986244
0.984779
0.985736
0.985639
0.989022
0.987977
0.988356
0.988909
0.988603
0.984513
0.983691
0.983117
0.983324
0.98335
0.981865
0.982554
0.981519
0.980663
0.981476
0.983176
0.981759
0.982286
0.984707
0.984887
0.982157
0.982942
0.981963
0.982415
0.980851
0.98171
0.986791
0.985958
0.983661
0.985252
0.985011
0.988707
0.988348
0.986941
0.988161
0.987434
0.987543
0.987032
0.988362
0.989225
0.982285
0.980809
0.981404
0.980659
0.980189
0.980262
0.979762
0.979759
0.978556
0.982727
0.983719
0.984023
0.981843
0.982134
0.98425
0.984271
0.985203
0.981881
0.981658
0.981381
0.980715
0.98001
0.980702
0.979522
0.979868
0.978971
0.979149
0.980612
0.980975
0.980299
0.98135
0.978557
0.980189
0.981239
0.980214
0.978912
0.978965
0.979705
0.981995
0.982041
0.98496
0.986718
0.986343
0.986486
0.98733
0.988121
0.979226
0.978475
0.979755
0.990349
0.991193
0.991717
0.989803
0.989755
0.990286
0.991214
0.99104
0.991237
0.990637
0.990755
0.989978
0.991027
0.991877
0.99398
0.996454
0.997683
0.998312
0.998473
0.996373
0.993041
0.992005
0.991388
0.991138
0.989789
0.986019
0.988434
0.988565
0.986944
0.987952
0.997154
0.992137
0.997478
0.995968
0.988194
0.993205
0.994878
0.994421
0.987764
0.98416
0.984901
0.984052
0.984341
0.985038
0.981737
0.987781
0.99359
0.994601
0.9999
0.999472
1.00055
1.00292
1.00043
1.00084
1.0014
1.00439
1.00481
1.0073
1.00454
1.00126
1.0028
1.00413
1.00675
1.00779
1.00357
1.00487
1.00133
1.00492
1.00517
0.992385
0.980234
0.981282
0.980617
0.986992
0.985391
0.986981
0.98724
0.985846
0.986054
0.991492
0.99235
0.991273
0.989824
0.992037
0.992489
0.992821
0.993468
0.996306
0.987715
0.98795
0.98672
0.989219
0.990614
0.992662
0.994778
0.997675
0.99506
0.997017
0.996745
0.997746
0.999952
0.981125
0.979691
0.97988
0.978832
0.979273
0.980087
0.980374
0.979542
0.979966
0.980583
0.979863
0.979295
0.979825
0.979652
0.979526
0.9794
0.978437
0.979053
0.978474
0.978391
0.97869
0.978692
0.977571
0.979753
0.978474
0.979444
0.980628
0.980952
0.980324
0.979743
0.995842
0.999017
0.995395
0.996112
0.998006
1.00103
0.996085
0.995604
0.997795
0.995555
0.991934
0.992568
0.992479
0.993605
0.994134
0.992613
0.991245
0.992644
0.993757
0.995846
0.994971
0.991564
0.991706
0.992458
0.994612
0.993639
0.995019
0.995285
1.0053
1.00271
1.0051
1.0071
1.00747
1.00598
1.00392
1.00286
1.00207
1.0015
1.0037
1.00284
1.00122
1.00398
1.00388
1.00247
1.00221
1.00424
0.998789
1.00131
1.00264
1.00316
1.00111
1.00029
1.00005
1.00088
0.998489
1.00628
1.00424
1.00697
1.00113
0.999653
0.999542
1.00084
1.00096
0.999191
1.00016
1.00051
0.99956
0.999596
1.00105
1.00264
1.00181
0.998923
0.987252
0.985452
0.986276
0.987005
0.984915
0.985279
0.986024
0.985617
0.98795
0.988685
0.989246
0.988633
0.983633
0.98348
0.982542
0.981819
0.981431
0.981423
0.981634
0.980756
0.981028
0.983094
0.981789
0.982009
0.984781
0.984847
0.982288
0.982151
0.983351
0.980651
0.981136
0.982296
0.980574
0.982234
0.986189
0.983751
0.98389
0.985478
0.988691
0.988338
0.986955
0.987159
0.987802
0.987172
0.98728
0.985706
0.988521
0.988519
0.988683
0.989142
0.980928
0.980589
0.979299
0.978653
0.979957
0.978342
0.983086
0.984124
0.983917
0.981653
0.982024
0.982183
0.984061
0.984374
0.985183
0.985603
0.981596
0.980862
0.980871
0.980002
0.979379
0.980206
0.979441
0.978812
0.97907
0.97979
0.980476
0.981039
0.980932
0.98002
0.981489
0.978112
0.978664
0.978196
0.979767
0.978352
0.978606
0.978263
0.979028
0.979106
0.979893
0.979924
0.982844
0.983691
0.982566
0.980969
0.984598
0.984994
0.98682
0.985501
0.987003
0.987388
0.985881
0.987765
0.988551
0.979145
0.97853
0.978414
0.978871
0.980343
0.990151
0.991408
0.989389
0.99013
0.99148
0.991295
0.991513
0.990858
0.990626
0.990697
0.990527
0.990256
0.991464
0.991726
0.990819
0.994059
0.994637
0.994252
0.99727
1.00045
0.998825
0.998739
1.00047
0.997004
0.993432
0.992375
0.993436
0.991616
0.992744
0.990558
0.990038
0.989389
0.989208
0.985908
0.987597
0.988834
0.988106
0.98753
0.987815
0.997293
0.991791
0.991483
0.999328
0.998068
0.998496
0.989182
0.992019
0.99475
0.995524
0.994078
0.98673
0.981385
0.983132
0.984023
0.984361
0.984245
0.98455
0.984753
0.988373
0.994702
0.999995
1.00061
1.00033
1.00199
1.00434
1.00241
1.00263
1.00697
1.00756
1.00749
1.00434
1.00571
1.01035
1.00536
1.01046
1.00358
1.00546
1.00633
1.00579
0.979816
0.980286
0.985639
0.987277
0.987846
0.985535
0.986392
0.986107
0.991663
0.990206
0.992259
0.992338
0.995655
0.993682
0.994375
0.99652
0.988911
0.987481
0.988401
0.986711
0.989477
0.991338
0.99055
0.992512
0.995048
0.994523
0.998074
0.996635
0.998619
0.997095
0.997958
0.998031
0.999944
0.980205
0.979485
0.978705
0.978678
0.979064
0.979485
0.979583
0.980071
0.979587
0.978757
0.979062
0.979515
0.979821
0.979117
0.97935
0.979753
0.978581
0.978293
0.978646
0.977991
0.97779
0.977749
0.977951
0.977566
0.97823
0.978596
0.977123
0.977745
0.978022
0.979695
0.978567
0.977707
0.97955
0.980633
0.979649
0.979504
0.996387
0.997148
0.998843
0.995144
0.997149
0.996395
0.998136
0.999317
1.00056
0.997241
0.99866
0.998072
0.995228
0.991833
0.993181
0.992736
0.99259
0.994318
0.994024
0.992504
0.991109
0.992963
0.993971
0.994577
0.995462
0.997054
0.995416
0.993138
0.994381
0.995691
0.995416
1.00994
1.00552
1.00975
1.00577
1.00827
1.01019
1.01201
1.00703
1.00666
1.00385
1.00372
1.00166
1.00402
1.00323
0.999394
1.00208
1.0039
1.00511
1.0026
1.00733
1.00166
1.00865
1.0072
0.998566
1.00311
1.00546
1.00691
1.00294
1.00036
1.00035
1.00312
1.00955
1.00536
1.01104
1.00281
1.00081
0.999174
1.00217
1.00028
1.00251
1.00004
1.00091
1.00082
1.00016
0.999685
1.00037
1.00224
1.00229
0.986254
0.984137
0.984754
0.985576
0.985728
0.986137
0.985569
0.987714
0.988798
0.988556
0.983547
0.983653
0.982744
0.981827
0.981288
0.981285
0.981357
0.980672
0.980988
0.983138
0.981829
0.981855
0.982184
0.984216
0.985269
0.985026
0.982121
0.982189
0.982974
0.980569
0.981061
0.981324
0.979889
0.980285
0.982647
0.986254
0.986242
0.983798
0.98354
0.985224
0.988761
0.988458
0.987966
0.987138
0.98699
0.987627
0.987546
0.986361
0.985575
0.98562
0.988743
0.987715
0.988735
0.987886
0.989
0.98866
0.981733
0.980093
0.97927
0.978553
0.978285
0.979095
0.97859
0.978404
0.983423
0.984729
0.981626
0.982098
0.98151
0.983728
0.984531
0.984793
0.984983
0.985433
0.984744
0.985827
0.980283
0.980491
0.979723
0.97956
0.98003
0.979692
0.97958
0.978679
0.977962
0.9784
0.978954
0.979377
0.979801
0.979063
0.979939
0.980338
0.980293
0.980668
0.978234
0.97766
0.977264
0.977881
0.977303
0.979085
0.977547
0.97888
0.978633
0.979031
0.977402
0.979219
0.979939
0.980019
0.979719
0.982688
0.980472
0.97994
0.982938
0.984931
0.979691
0.981756
0.985988
0.987013
0.988417
0.988288
0.985189
0.986062
0.98764
0.987464
0.987839
0.986333
0.987191
0.989556
0.991478
0.978875
0.978831
0.978441
0.978214
0.98039
0.980187
0.990876
0.989136
0.990309
0.99086
0.991057
0.991446
0.990598
0.991136
0.990632
0.990569
0.989065
0.989912
0.991937
0.992806
0.991236
0.990533
0.993996
0.994778
0.99437
0.994436
0.997377
0.99833
1.00033
1.00069
0.998922
0.998908
1.00069
0.999805
0.997106
0.993303
0.994198
0.990929
0.993398
0.994166
0.989685
0.993309
0.992601
0.990611
0.989552
0.988349
0.988005
0.985921
0.986906
0.988197
0.986722
0.986896
0.987348
0.991786
0.992759
1.00039
0.99849
1.00005
0.998369
0.989275
0.99268
0.995893
0.995644
0.99515
0.987522
0.982396
0.981895
0.98353
0.98334
0.984778
0.983277
0.984301
0.98457
0.983101
0.984828
0.984869
0.988209
1.00029
1.00083
1.00153
1.0016
1.00395
1.00177
1.00237
1.00958
1.01025
1.00836
1.0043
1.00487
1.00677
1.0053
1.01149
1.00574
1.01173
1.01058
1.00574
1.00574
1.00726
1.00609
0.987551
0.985999
0.98615
0.990293
0.992891
0.992968
0.99596
0.996625
0.993876
0.996816
0.996804
0.988046
0.98893
0.989254
0.987064
0.991748
0.991169
0.991276
0.993531
0.994972
0.995025
0.998431
0.999359
0.999256
0.999724
1.00018
0.978942
0.978843
0.978643
0.979116
0.978743
0.979895
0.978952
0.978685
0.979343
0.978514
0.978261
0.978328
0.977859
0.977481
0.978358
0.977778
0.978943
0.978145
0.977606
0.977582
0.978049
0.977969
0.977687
0.976363
0.978116
0.976891
0.978513
0.977846
0.977621
0.977778
0.978185
0.979751
0.978734
0.977984
0.978061
0.978856
0.996923
0.996898
0.998746
0.995513
0.995625
0.996999
0.995504
0.998665
1.00046
0.998387
0.992446
0.992954
0.992287
0.995047
0.994427
0.994191
0.994684
0.99278
0.993557
0.991449
0.992234
0.992931
0.993795
0.994263
0.994514
0.996338
0.995344
0.996923
0.997763
0.99493
0.995541
1.00871
1.01073
1.00988
1.00531
1.00976
1.01009
1.01107
1.00984
1.01333
1.01374
1.01244
1.00673
1.00814
1.00669
1.00316
1.00346
1.00551
1.00385
1.00337
0.998897
1.00124
1.00117
1.00481
1.00515
1.00569
1.00655
1.0095
1.00521
1.00853
1.00861
1.01024
1.00294
1.00271
1.00308
1.00417
1.00679
1.00792
1.0052
1.0026
1.0003
1.00195
1.0054
1.00996
1.01348
1.00219
1.00248
1.00095
1.00405
1.00133
0.999983
1.00123
1.00051
1.00327
1.00247
0.983872
0.984469
0.985529
0.98546
0.986303
0.98831
0.988325
0.982754
0.981492
0.980706
0.98105
0.980699
0.980776
0.980042
0.982421
0.98178
0.980782
0.982038
0.984667
0.98562
0.984978
0.98205
0.981618
0.98225
0.983864
0.980557
0.981391
0.981571
0.980427
0.980375
0.981152
0.982107
0.985679
0.983771
0.983897
0.98542
0.989053
0.988819
0.987939
0.987221
0.986494
0.987819
0.986958
0.986341
0.985661
0.985173
0.985422
0.988613
0.987511
0.987671
0.985699
0.988865
0.987932
0.988935
0.989038
0.979805
0.978724
0.978731
0.979189
0.978036
0.979
0.978023
0.978551
0.977925
0.977221
0.985004
0.982039
0.981955
0.982445
0.983593
0.984234
0.985964
0.985441
0.984694
0.985648
0.98431
0.986024
0.979556
0.979774
0.978722
0.979202
0.980303
0.980044
0.979754
0.979026
0.979096
0.979613
0.978985
0.978778
0.977987
0.977898
0.978821
0.979063
0.979039
0.97944
0.978923
0.978775
0.98021
0.980573
0.980072
0.981457
0.977939
0.976768
0.977651
0.977049
0.977489
0.977575
0.980206
0.977544
0.977638
0.978513
0.978517
0.978635
0.977879
0.977385
0.979073
0.97921
0.979689
0.979999
0.979782
0.979034
0.984777
0.98168
0.981761
0.980084
0.982925
0.984138
0.983464
0.981555
0.98096
0.98714
0.988832
0.989075
0.989164
0.990971
0.985994
0.985834
0.987157
0.988435
0.987739
0.988612
0.987937
0.98754
0.9864
0.98657
0.988117
0.988981
0.989462
0.978582
0.978468
0.97735
0.978115
0.978796
0.978504
0.978042
0.980957
0.97823
0.979595
0.980079
0.98983
0.99071
0.991712
0.990916
0.990432
0.990253
0.990101
0.989036
0.989651
0.992151
0.990869
0.99265
0.991156
0.990556
0.98978
0.993919
0.995323
0.995145
0.99924
0.999329
0.999452
1.00059
1.00494
0.998834
0.998657
1.00088
1.00054
0.999792
0.996886
0.994805
0.996174
0.995143
0.991767
0.990766
0.989504
0.995747
0.993815
0.994182
0.999367
0.987888
0.99471
0.990842
0.992435
0.992022
0.990925
0.988617
0.987969
0.988119
0.987977
0.986931
0.985685
0.987075
0.986809
0.986893
0.986772
0.991579
0.98818
0.992106
1.00016
1.00197
1.00251
0.99989
0.998174
0.999504
0.99249
0.995817
0.999479
0.995667
0.994923
0.98542
0.982669
0.980208
0.983141
0.983283
0.98423
0.983408
0.98628
0.984744
0.983332
0.983286
0.984538
0.986534
0.980776
0.988982
1.00138
1.00492
1.00428
1.00399
1.00292
1.00535
1.00963
1.01113
1.01012
1.01029
1.0038
1.0052
1.00922
1.00704
1.01488
1.00691
1.01377
1.01322
1.01023
1.00567
1.00824
1.00645
0.986356
0.986859
0.990841
0.995561
0.992784
0.996211
0.996133
0.996748
0.995597
0.996898
0.996953
0.988131
0.989182
0.991867
0.99205
0.990463
0.991626
0.994412
0.992995
0.995112
0.995123
1.00019
0.999863
0.999585
1.00086
0.978079
0.97868
0.978886
0.978507
0.978837
0.978134
0.97826
0.977154
0.977175
0.977452
0.977114
0.977829
0.976878
0.977725
0.977054
0.977504
0.977082
0.977544
0.977512
0.976637
0.977257
0.978076
0.977282
0.976311
0.978019
0.976929
0.977505
0.978881
0.977959
0.9784
0.976706
0.977461
0.977803
0.997904
0.997123
0.997017
0.997715
0.998806
0.998945
0.995484
0.997933
0.999418
0.999409
0.993536
0.992302
0.994596
0.994329
0.992654
0.993157
0.991201
0.992054
0.992664
0.993692
0.994257
0.994646
0.995191
0.996226
0.995993
0.995725
0.997431
0.996422
1.00859
1.0096
1.01087
1.01351
1.0102
1.0123
1.00632
1.01205
1.01064
1.0109
1.01386
1.01705
1.0189
1.01644
1.00569
1.01161
1.01126
1.00597
1.00405
1.00311
1.00414
1.00274
1.00633
1.00527
1.00234
1.00201
1.00527
1.00106
1.00108
1.00495
1.00811
1.00542
1.00666
1.00464
1.00923
1.01103
1.00508
1.0089
1.0089
1.00871
1.01503
1.00292
1.00368
1.00468
1.00446
1.00314
1.00446
1.00529
1.01072
1.00624
1.01169
1.00493
1.00252
1.00231
1.00384
1.00177
1.00151
1.01308
1.0138
1.01556
1.00261
1.00391
1.00193
1.00146
1.00087
1.00344
1.00272
0.985198
0.98814
0.982111
0.980816
0.981814
0.980915
0.982383
0.982144
0.982261
0.980825
0.980626
0.980931
0.984433
0.984966
0.98421
0.98292
0.981616
0.982397
0.984069
0.983848
0.9802
0.980604
0.981294
0.979958
0.978906
0.980316
0.980995
0.981466
0.983435
0.984072
0.983778
0.985612
0.986381
0.988462
0.988544
0.987535
0.986372
0.986863
0.986444
0.986448
0.985806
0.985457
0.985603
0.986062
0.988909
0.987519
0.987457
0.987642
0.985938
0.989286
0.988904
0.987956
0.988055
0.989249
0.980194
0.977887
0.979213
0.977939
0.978903
0.977628
0.977915
0.979079
0.977154
0.978092
0.981527
0.982392
0.982824
0.981588
0.983659
0.98408
0.984579
0.985923
0.983865
0.984324
0.986953
0.978765
0.979361
0.979003
0.978936
0.978908
0.979206
0.978281
0.979067
0.978374
0.978951
0.978312
0.977493
0.978084
0.978709
0.978127
0.978944
0.979566
0.978957
0.97885
0.977982
0.979533
0.979698
0.980845
0.981264
0.981565
0.976926
0.976393
0.976252
0.977975
0.977245
0.977803
0.977068
0.977195
0.979763
0.980509
0.977172
0.977718
0.977837
0.977517
0.977537
0.978167
0.977476
0.978735
0.977645
0.976826
0.979112
0.979058
0.979511
0.979511
0.979779
0.979808
0.980004
0.979147
0.978393
0.984266
0.983829
0.980635
0.981679
0.981507
0.981154
0.980204
0.982051
0.984638
0.983166
0.983551
0.985144
0.981024
0.980139
0.981031
0.989042
0.988984
0.990142
0.989611
0.99173
0.990485
0.991084
0.991685
0.986917
0.985935
0.985164
0.986878
0.988822
0.988223
0.989825
0.987574
0.987979
0.988557
0.989345
0.988087
0.987379
0.987645
0.986662
0.987051
0.988067
0.989207
0.977246
0.976741
0.976845
0.977087
0.977513
0.978084
0.978208
0.978456